V -t * -v 1.0a5 -a 0
A -t * -n 1 -p 0 -o 0x7fffffff -c 30 -a 1
A -t * -h 1 -m 1073741823 -s 0
c -t * -i 0 -n blue
c -t * -i 1 -n red
c -t * -i 2 -n black
c -t * -i 3 -n green
n -t * -a 0 -s 0 -S UP -v circle -c black -i black
n -t * -a 1 -s 1 -S UP -v circle -c black -i black
l -t * -s 0 -d 1 -S UP -r 2000000 -D 0.02 -c black
+ -t 0.1 -s 0 -d 1 -p tcp -e 40 -c 0 -i 0 -a 0 -x {0.1 1.1 0 ------- null}
- -t 0.1 -s 0 -d 1 -p tcp -e 40 -c 0 -i 0 -a 0 -x {0.1 1.1 0 ------- null}
h -t 0.1 -s 0 -d 1 -p tcp -e 40 -c 0 -i 0 -a 0 -x {0.1 1.1 -1 ------- null}
+ -t 0.1 -s 0 -d 1 -p tcp -e 40 -c 1 -i 1 -a 1 -x {0.2 1.2 0 ------- null}
+ -t 0.1 -s 0 -d 1 -p tcp -e 40 -c 2 -i 2 -a 2 -x {0.3 1.3 0 ------- null}
- -t 0.10016 -s 0 -d 1 -p tcp -e 40 -c 1 -i 1 -a 1 -x {0.2 1.2 0 ------- null}
h -t 0.10016 -s 0 -d 1 -p tcp -e 40 -c 1 -i 1 -a 1 -x {0.2 1.2 -1 ------- null}
- -t 0.10032 -s 0 -d 1 -p tcp -e 40 -c 2 -i 2 -a 2 -x {0.3 1.3 0 ------- null}
h -t 0.10032 -s 0 -d 1 -p tcp -e 40 -c 2 -i 2 -a 2 -x {0.3 1.3 -1 ------- null}
r -t 0.12016 -s 0 -d 1 -p tcp -e 40 -c 0 -i 0 -a 0 -x {0.1 1.1 0 ------- null}
+ -t 0.12016 -s 1 -d 0 -p ack -e 40 -c 0 -i 3 -a 0 -x {1.1 0.1 0 ------- null}
- -t 0.12016 -s 1 -d 0 -p ack -e 40 -c 0 -i 3 -a 0 -x {1.1 0.1 0 ------- null}
h -t 0.12016 -s 1 -d 0 -p ack -e 40 -c 0 -i 3 -a 0 -x {1.1 0.1 -1 ------- null}
r -t 0.12032 -s 0 -d 1 -p tcp -e 40 -c 1 -i 1 -a 1 -x {0.2 1.2 0 ------- null}
+ -t 0.12032 -s 1 -d 0 -p ack -e 40 -c 1 -i 4 -a 1 -x {1.2 0.2 0 ------- null}
- -t 0.12032 -s 1 -d 0 -p ack -e 40 -c 1 -i 4 -a 1 -x {1.2 0.2 0 ------- null}
h -t 0.12032 -s 1 -d 0 -p ack -e 40 -c 1 -i 4 -a 1 -x {1.2 0.2 -1 ------- null}
r -t 0.12048 -s 0 -d 1 -p tcp -e 40 -c 2 -i 2 -a 2 -x {0.3 1.3 0 ------- null}
+ -t 0.12048 -s 1 -d 0 -p ack -e 40 -c 2 -i 5 -a 2 -x {1.3 0.3 0 ------- null}
- -t 0.12048 -s 1 -d 0 -p ack -e 40 -c 2 -i 5 -a 2 -x {1.3 0.3 0 ------- null}
h -t 0.12048 -s 1 -d 0 -p ack -e 40 -c 2 -i 5 -a 2 -x {1.3 0.3 -1 ------- null}
+ -t 0.121115769777637 -s 0 -d 1 -p exp -e 210 -c 3 -i 6 -a 3 -x {0.0 1.0 0 ------- null}
- -t 0.121115769777637 -s 0 -d 1 -p exp -e 210 -c 3 -i 6 -a 3 -x {0.0 1.0 0 ------- null}
h -t 0.121115769777637 -s 0 -d 1 -p exp -e 210 -c 3 -i 6 -a 3 -x {0.0 1.0 -1 ------- null}
+ -t 0.121955769777637 -s 0 -d 1 -p exp -e 210 -c 3 -i 7 -a 3 -x {0.0 1.0 1 ------- null}
- -t 0.121955769777637 -s 0 -d 1 -p exp -e 210 -c 3 -i 7 -a 3 -x {0.0 1.0 1 ------- null}
h -t 0.121955769777637 -s 0 -d 1 -p exp -e 210 -c 3 -i 7 -a 3 -x {0.0 1.0 -1 ------- null}
+ -t 0.122795769777637 -s 0 -d 1 -p exp -e 210 -c 3 -i 8 -a 3 -x {0.0 1.0 2 ------- null}
- -t 0.122795769777637 -s 0 -d 1 -p exp -e 210 -c 3 -i 8 -a 3 -x {0.0 1.0 2 ------- null}
h -t 0.122795769777637 -s 0 -d 1 -p exp -e 210 -c 3 -i 8 -a 3 -x {0.0 1.0 -1 ------- null}
+ -t 0.123635769777637 -s 0 -d 1 -p exp -e 210 -c 3 -i 9 -a 3 -x {0.0 1.0 3 ------- null}
- -t 0.123635769777637 -s 0 -d 1 -p exp -e 210 -c 3 -i 9 -a 3 -x {0.0 1.0 3 ------- null}
h -t 0.123635769777637 -s 0 -d 1 -p exp -e 210 -c 3 -i 9 -a 3 -x {0.0 1.0 -1 ------- null}
+ -t 0.124475769777637 -s 0 -d 1 -p exp -e 210 -c 3 -i 10 -a 3 -x {0.0 1.0 4 ------- null}
- -t 0.124475769777637 -s 0 -d 1 -p exp -e 210 -c 3 -i 10 -a 3 -x {0.0 1.0 4 ------- null}
h -t 0.124475769777637 -s 0 -d 1 -p exp -e 210 -c 3 -i 10 -a 3 -x {0.0 1.0 -1 ------- null}
+ -t 0.125315769777637 -s 0 -d 1 -p exp -e 210 -c 3 -i 11 -a 3 -x {0.0 1.0 5 ------- null}
- -t 0.125315769777637 -s 0 -d 1 -p exp -e 210 -c 3 -i 11 -a 3 -x {0.0 1.0 5 ------- null}
h -t 0.125315769777637 -s 0 -d 1 -p exp -e 210 -c 3 -i 11 -a 3 -x {0.0 1.0 -1 ------- null}
+ -t 0.126155769777637 -s 0 -d 1 -p exp -e 210 -c 3 -i 12 -a 3 -x {0.0 1.0 6 ------- null}
- -t 0.126155769777637 -s 0 -d 1 -p exp -e 210 -c 3 -i 12 -a 3 -x {0.0 1.0 6 ------- null}
h -t 0.126155769777637 -s 0 -d 1 -p exp -e 210 -c 3 -i 12 -a 3 -x {0.0 1.0 -1 ------- null}
+ -t 0.126995769777637 -s 0 -d 1 -p exp -e 210 -c 3 -i 13 -a 3 -x {0.0 1.0 7 ------- null}
- -t 0.126995769777637 -s 0 -d 1 -p exp -e 210 -c 3 -i 13 -a 3 -x {0.0 1.0 7 ------- null}
h -t 0.126995769777637 -s 0 -d 1 -p exp -e 210 -c 3 -i 13 -a 3 -x {0.0 1.0 -1 ------- null}
+ -t 0.127835769777637 -s 0 -d 1 -p exp -e 210 -c 3 -i 14 -a 3 -x {0.0 1.0 8 ------- null}
- -t 0.127835769777637 -s 0 -d 1 -p exp -e 210 -c 3 -i 14 -a 3 -x {0.0 1.0 8 ------- null}
h -t 0.127835769777637 -s 0 -d 1 -p exp -e 210 -c 3 -i 14 -a 3 -x {0.0 1.0 -1 ------- null}
+ -t 0.128675769777637 -s 0 -d 1 -p exp -e 210 -c 3 -i 15 -a 3 -x {0.0 1.0 9 ------- null}
- -t 0.128675769777637 -s 0 -d 1 -p exp -e 210 -c 3 -i 15 -a 3 -x {0.0 1.0 9 ------- null}
h -t 0.128675769777637 -s 0 -d 1 -p exp -e 210 -c 3 -i 15 -a 3 -x {0.0 1.0 -1 ------- null}
+ -t 0.129515769777637 -s 0 -d 1 -p exp -e 210 -c 3 -i 16 -a 3 -x {0.0 1.0 10 ------- null}
- -t 0.129515769777637 -s 0 -d 1 -p exp -e 210 -c 3 -i 16 -a 3 -x {0.0 1.0 10 ------- null}
h -t 0.129515769777637 -s 0 -d 1 -p exp -e 210 -c 3 -i 16 -a 3 -x {0.0 1.0 -1 ------- null}
+ -t 0.130355769777637 -s 0 -d 1 -p exp -e 210 -c 3 -i 17 -a 3 -x {0.0 1.0 11 ------- null}
- -t 0.130355769777637 -s 0 -d 1 -p exp -e 210 -c 3 -i 17 -a 3 -x {0.0 1.0 11 ------- null}
h -t 0.130355769777637 -s 0 -d 1 -p exp -e 210 -c 3 -i 17 -a 3 -x {0.0 1.0 -1 ------- null}
+ -t 0.131195769777637 -s 0 -d 1 -p exp -e 210 -c 3 -i 18 -a 3 -x {0.0 1.0 12 ------- null}
- -t 0.131195769777637 -s 0 -d 1 -p exp -e 210 -c 3 -i 18 -a 3 -x {0.0 1.0 12 ------- null}
h -t 0.131195769777637 -s 0 -d 1 -p exp -e 210 -c 3 -i 18 -a 3 -x {0.0 1.0 -1 ------- null}
+ -t 0.132035769777637 -s 0 -d 1 -p exp -e 210 -c 3 -i 19 -a 3 -x {0.0 1.0 13 ------- null}
- -t 0.132035769777637 -s 0 -d 1 -p exp -e 210 -c 3 -i 19 -a 3 -x {0.0 1.0 13 ------- null}
h -t 0.132035769777637 -s 0 -d 1 -p exp -e 210 -c 3 -i 19 -a 3 -x {0.0 1.0 -1 ------- null}
+ -t 0.132875769777637 -s 0 -d 1 -p exp -e 210 -c 3 -i 20 -a 3 -x {0.0 1.0 14 ------- null}
- -t 0.132875769777637 -s 0 -d 1 -p exp -e 210 -c 3 -i 20 -a 3 -x {0.0 1.0 14 ------- null}
h -t 0.132875769777637 -s 0 -d 1 -p exp -e 210 -c 3 -i 20 -a 3 -x {0.0 1.0 -1 ------- null}
+ -t 0.133715769777637 -s 0 -d 1 -p exp -e 210 -c 3 -i 21 -a 3 -x {0.0 1.0 15 ------- null}
- -t 0.133715769777637 -s 0 -d 1 -p exp -e 210 -c 3 -i 21 -a 3 -x {0.0 1.0 15 ------- null}
h -t 0.133715769777637 -s 0 -d 1 -p exp -e 210 -c 3 -i 21 -a 3 -x {0.0 1.0 -1 ------- null}
+ -t 0.134555769777637 -s 0 -d 1 -p exp -e 210 -c 3 -i 22 -a 3 -x {0.0 1.0 16 ------- null}
- -t 0.134555769777637 -s 0 -d 1 -p exp -e 210 -c 3 -i 22 -a 3 -x {0.0 1.0 16 ------- null}
h -t 0.134555769777637 -s 0 -d 1 -p exp -e 210 -c 3 -i 22 -a 3 -x {0.0 1.0 -1 ------- null}
+ -t 0.135395769777637 -s 0 -d 1 -p exp -e 210 -c 3 -i 23 -a 3 -x {0.0 1.0 17 ------- null}
- -t 0.135395769777637 -s 0 -d 1 -p exp -e 210 -c 3 -i 23 -a 3 -x {0.0 1.0 17 ------- null}
h -t 0.135395769777637 -s 0 -d 1 -p exp -e 210 -c 3 -i 23 -a 3 -x {0.0 1.0 -1 ------- null}
+ -t 0.136235769777637 -s 0 -d 1 -p exp -e 210 -c 3 -i 24 -a 3 -x {0.0 1.0 18 ------- null}
- -t 0.136235769777637 -s 0 -d 1 -p exp -e 210 -c 3 -i 24 -a 3 -x {0.0 1.0 18 ------- null}
h -t 0.136235769777637 -s 0 -d 1 -p exp -e 210 -c 3 -i 24 -a 3 -x {0.0 1.0 -1 ------- null}
+ -t 0.137075769777637 -s 0 -d 1 -p exp -e 210 -c 3 -i 25 -a 3 -x {0.0 1.0 19 ------- null}
- -t 0.137075769777637 -s 0 -d 1 -p exp -e 210 -c 3 -i 25 -a 3 -x {0.0 1.0 19 ------- null}
h -t 0.137075769777637 -s 0 -d 1 -p exp -e 210 -c 3 -i 25 -a 3 -x {0.0 1.0 -1 ------- null}
+ -t 0.137915769777637 -s 0 -d 1 -p exp -e 210 -c 3 -i 26 -a 3 -x {0.0 1.0 20 ------- null}
- -t 0.137915769777637 -s 0 -d 1 -p exp -e 210 -c 3 -i 26 -a 3 -x {0.0 1.0 20 ------- null}
h -t 0.137915769777637 -s 0 -d 1 -p exp -e 210 -c 3 -i 26 -a 3 -x {0.0 1.0 -1 ------- null}
+ -t 0.138755769777637 -s 0 -d 1 -p exp -e 210 -c 3 -i 27 -a 3 -x {0.0 1.0 21 ------- null}
- -t 0.138755769777637 -s 0 -d 1 -p exp -e 210 -c 3 -i 27 -a 3 -x {0.0 1.0 21 ------- null}
h -t 0.138755769777637 -s 0 -d 1 -p exp -e 210 -c 3 -i 27 -a 3 -x {0.0 1.0 -1 ------- null}
+ -t 0.139595769777637 -s 0 -d 1 -p exp -e 210 -c 3 -i 28 -a 3 -x {0.0 1.0 22 ------- null}
- -t 0.139595769777637 -s 0 -d 1 -p exp -e 210 -c 3 -i 28 -a 3 -x {0.0 1.0 22 ------- null}
h -t 0.139595769777637 -s 0 -d 1 -p exp -e 210 -c 3 -i 28 -a 3 -x {0.0 1.0 -1 ------- null}
r -t 0.14032 -s 1 -d 0 -p ack -e 40 -c 0 -i 3 -a 0 -x {1.1 0.1 0 ------- null}
+ -t 0.14032 -s 0 -d 1 -p tcp -e 1040 -c 0 -i 29 -a 0 -x {0.1 1.1 1 ------- null}
+ -t 0.14032 -s 0 -d 1 -p tcp -e 1040 -c 0 -i 30 -a 0 -x {0.1 1.1 2 ------- null}
- -t 0.140435769777637 -s 0 -d 1 -p tcp -e 1040 -c 0 -i 29 -a 0 -x {0.1 1.1 1 ------- null}
h -t 0.140435769777637 -s 0 -d 1 -p tcp -e 1040 -c 0 -i 29 -a 0 -x {0.1 1.1 -1 ------- null}
+ -t 0.140435769777637 -s 0 -d 1 -p exp -e 210 -c 3 -i 31 -a 3 -x {0.0 1.0 23 ------- null}
r -t 0.14048 -s 1 -d 0 -p ack -e 40 -c 1 -i 4 -a 1 -x {1.2 0.2 0 ------- null}
+ -t 0.14048 -s 0 -d 1 -p tcp -e 1040 -c 1 -i 32 -a 1 -x {0.2 1.2 1 ------- null}
+ -t 0.14048 -s 0 -d 1 -p tcp -e 1040 -c 1 -i 33 -a 1 -x {0.2 1.2 2 ------- null}
r -t 0.14064 -s 1 -d 0 -p ack -e 40 -c 2 -i 5 -a 2 -x {1.3 0.3 0 ------- null}
+ -t 0.14064 -s 0 -d 1 -p tcp -e 1040 -c 2 -i 34 -a 2 -x {0.3 1.3 1 ------- null}
+ -t 0.14064 -s 0 -d 1 -p tcp -e 1040 -c 2 -i 35 -a 2 -x {0.3 1.3 2 ------- null}
+ -t 0.141275769777637 -s 0 -d 1 -p exp -e 210 -c 3 -i 36 -a 3 -x {0.0 1.0 24 ------- null}
r -t 0.141955769777637 -s 0 -d 1 -p exp -e 210 -c 3 -i 6 -a 3 -x {0.0 1.0 0 ------- null}
+ -t 0.142115769777637 -s 0 -d 1 -p exp -e 210 -c 3 -i 37 -a 3 -x {0.0 1.0 25 ------- null}
r -t 0.142795769777637 -s 0 -d 1 -p exp -e 210 -c 3 -i 7 -a 3 -x {0.0 1.0 1 ------- null}
+ -t 0.142955769777637 -s 0 -d 1 -p exp -e 210 -c 3 -i 38 -a 3 -x {0.0 1.0 26 ------- null}
r -t 0.143635769777637 -s 0 -d 1 -p exp -e 210 -c 3 -i 8 -a 3 -x {0.0 1.0 2 ------- null}
+ -t 0.143795769777637 -s 0 -d 1 -p exp -e 210 -c 3 -i 39 -a 3 -x {0.0 1.0 27 ------- null}
r -t 0.144475769777637 -s 0 -d 1 -p exp -e 210 -c 3 -i 9 -a 3 -x {0.0 1.0 3 ------- null}
- -t 0.144595769777637 -s 0 -d 1 -p tcp -e 1040 -c 0 -i 30 -a 0 -x {0.1 1.1 2 ------- null}
h -t 0.144595769777637 -s 0 -d 1 -p tcp -e 1040 -c 0 -i 30 -a 0 -x {0.1 1.1 -1 ------- null}
+ -t 0.144635769777637 -s 0 -d 1 -p exp -e 210 -c 3 -i 40 -a 3 -x {0.0 1.0 28 ------- null}
r -t 0.145315769777637 -s 0 -d 1 -p exp -e 210 -c 3 -i 10 -a 3 -x {0.0 1.0 4 ------- null}
+ -t 0.145475769777637 -s 0 -d 1 -p exp -e 210 -c 3 -i 41 -a 3 -x {0.0 1.0 29 ------- null}
r -t 0.146155769777637 -s 0 -d 1 -p exp -e 210 -c 3 -i 11 -a 3 -x {0.0 1.0 5 ------- null}
+ -t 0.146315769777637 -s 0 -d 1 -p exp -e 210 -c 3 -i 42 -a 3 -x {0.0 1.0 30 ------- null}
r -t 0.146995769777637 -s 0 -d 1 -p exp -e 210 -c 3 -i 12 -a 3 -x {0.0 1.0 6 ------- null}
+ -t 0.147155769777637 -s 0 -d 1 -p exp -e 210 -c 3 -i 43 -a 3 -x {0.0 1.0 31 ------- null}
r -t 0.147835769777637 -s 0 -d 1 -p exp -e 210 -c 3 -i 13 -a 3 -x {0.0 1.0 7 ------- null}
+ -t 0.147995769777637 -s 0 -d 1 -p exp -e 210 -c 3 -i 44 -a 3 -x {0.0 1.0 32 ------- null}
r -t 0.148675769777637 -s 0 -d 1 -p exp -e 210 -c 3 -i 14 -a 3 -x {0.0 1.0 8 ------- null}
- -t 0.148755769777637 -s 0 -d 1 -p exp -e 210 -c 3 -i 31 -a 3 -x {0.0 1.0 23 ------- null}
h -t 0.148755769777637 -s 0 -d 1 -p exp -e 210 -c 3 -i 31 -a 3 -x {0.0 1.0 -1 ------- null}
+ -t 0.148835769777637 -s 0 -d 1 -p exp -e 210 -c 3 -i 45 -a 3 -x {0.0 1.0 33 ------- null}
r -t 0.149515769777637 -s 0 -d 1 -p exp -e 210 -c 3 -i 15 -a 3 -x {0.0 1.0 9 ------- null}
- -t 0.149595769777637 -s 0 -d 1 -p tcp -e 1040 -c 1 -i 32 -a 1 -x {0.2 1.2 1 ------- null}
h -t 0.149595769777637 -s 0 -d 1 -p tcp -e 1040 -c 1 -i 32 -a 1 -x {0.2 1.2 -1 ------- null}
+ -t 0.149675769777637 -s 0 -d 1 -p exp -e 210 -c 3 -i 46 -a 3 -x {0.0 1.0 34 ------- null}
r -t 0.150355769777637 -s 0 -d 1 -p exp -e 210 -c 3 -i 16 -a 3 -x {0.0 1.0 10 ------- null}
+ -t 0.150515769777638 -s 0 -d 1 -p exp -e 210 -c 3 -i 47 -a 3 -x {0.0 1.0 35 ------- null}
r -t 0.151195769777637 -s 0 -d 1 -p exp -e 210 -c 3 -i 17 -a 3 -x {0.0 1.0 11 ------- null}
+ -t 0.151355769777638 -s 0 -d 1 -p exp -e 210 -c 3 -i 48 -a 3 -x {0.0 1.0 36 ------- null}
r -t 0.152035769777637 -s 0 -d 1 -p exp -e 210 -c 3 -i 18 -a 3 -x {0.0 1.0 12 ------- null}
+ -t 0.152195769777638 -s 0 -d 1 -p exp -e 210 -c 3 -i 49 -a 3 -x {0.0 1.0 37 ------- null}
r -t 0.152875769777637 -s 0 -d 1 -p exp -e 210 -c 3 -i 19 -a 3 -x {0.0 1.0 13 ------- null}
+ -t 0.153035769777638 -s 0 -d 1 -p exp -e 210 -c 3 -i 50 -a 3 -x {0.0 1.0 38 ------- null}
r -t 0.153715769777637 -s 0 -d 1 -p exp -e 210 -c 3 -i 20 -a 3 -x {0.0 1.0 14 ------- null}
- -t 0.153755769777637 -s 0 -d 1 -p tcp -e 1040 -c 1 -i 33 -a 1 -x {0.2 1.2 2 ------- null}
h -t 0.153755769777637 -s 0 -d 1 -p tcp -e 1040 -c 1 -i 33 -a 1 -x {0.2 1.2 -1 ------- null}
+ -t 0.153875769777638 -s 0 -d 1 -p exp -e 210 -c 3 -i 51 -a 3 -x {0.0 1.0 39 ------- null}
r -t 0.154555769777637 -s 0 -d 1 -p exp -e 210 -c 3 -i 21 -a 3 -x {0.0 1.0 15 ------- null}
+ -t 0.154715769777638 -s 0 -d 1 -p exp -e 210 -c 3 -i 52 -a 3 -x {0.0 1.0 40 ------- null}
r -t 0.155395769777637 -s 0 -d 1 -p exp -e 210 -c 3 -i 22 -a 3 -x {0.0 1.0 16 ------- null}
+ -t 0.155555769777638 -s 0 -d 1 -p exp -e 210 -c 3 -i 53 -a 3 -x {0.0 1.0 41 ------- null}
r -t 0.156235769777637 -s 0 -d 1 -p exp -e 210 -c 3 -i 23 -a 3 -x {0.0 1.0 17 ------- null}
+ -t 0.156395769777638 -s 0 -d 1 -p exp -e 210 -c 3 -i 54 -a 3 -x {0.0 1.0 42 ------- null}
r -t 0.157075769777637 -s 0 -d 1 -p exp -e 210 -c 3 -i 24 -a 3 -x {0.0 1.0 18 ------- null}
+ -t 0.157235769777638 -s 0 -d 1 -p exp -e 210 -c 3 -i 55 -a 3 -x {0.0 1.0 43 ------- null}
r -t 0.157915769777637 -s 0 -d 1 -p exp -e 210 -c 3 -i 25 -a 3 -x {0.0 1.0 19 ------- null}
- -t 0.157915769777637 -s 0 -d 1 -p tcp -e 1040 -c 2 -i 34 -a 2 -x {0.3 1.3 1 ------- null}
h -t 0.157915769777637 -s 0 -d 1 -p tcp -e 1040 -c 2 -i 34 -a 2 -x {0.3 1.3 -1 ------- null}
+ -t 0.158075769777638 -s 0 -d 1 -p exp -e 210 -c 3 -i 56 -a 3 -x {0.0 1.0 44 ------- null}
r -t 0.158755769777637 -s 0 -d 1 -p exp -e 210 -c 3 -i 26 -a 3 -x {0.0 1.0 20 ------- null}
+ -t 0.158915769777638 -s 0 -d 1 -p exp -e 210 -c 3 -i 57 -a 3 -x {0.0 1.0 45 ------- null}
r -t 0.159595769777637 -s 0 -d 1 -p exp -e 210 -c 3 -i 27 -a 3 -x {0.0 1.0 21 ------- null}
+ -t 0.159755769777638 -s 0 -d 1 -p exp -e 210 -c 3 -i 58 -a 3 -x {0.0 1.0 46 ------- null}
r -t 0.160435769777637 -s 0 -d 1 -p exp -e 210 -c 3 -i 28 -a 3 -x {0.0 1.0 22 ------- null}
+ -t 0.160595769777638 -s 0 -d 1 -p exp -e 210 -c 3 -i 59 -a 3 -x {0.0 1.0 47 ------- null}
+ -t 0.161435769777638 -s 0 -d 1 -p exp -e 210 -c 3 -i 60 -a 3 -x {0.0 1.0 48 ------- null}
- -t 0.162075769777637 -s 0 -d 1 -p tcp -e 1040 -c 2 -i 35 -a 2 -x {0.3 1.3 2 ------- null}
h -t 0.162075769777637 -s 0 -d 1 -p tcp -e 1040 -c 2 -i 35 -a 2 -x {0.3 1.3 -1 ------- null}
+ -t 0.162275769777638 -s 0 -d 1 -p exp -e 210 -c 3 -i 61 -a 3 -x {0.0 1.0 49 ------- null}
+ -t 0.163115769777638 -s 0 -d 1 -p exp -e 210 -c 3 -i 62 -a 3 -x {0.0 1.0 50 ------- null}
+ -t 0.163955769777638 -s 0 -d 1 -p exp -e 210 -c 3 -i 63 -a 3 -x {0.0 1.0 51 ------- null}
r -t 0.164595769777637 -s 0 -d 1 -p tcp -e 1040 -c 0 -i 29 -a 0 -x {0.1 1.1 1 ------- null}
+ -t 0.164595769777637 -s 1 -d 0 -p ack -e 40 -c 0 -i 64 -a 0 -x {1.1 0.1 1 ------- null}
- -t 0.164595769777637 -s 1 -d 0 -p ack -e 40 -c 0 -i 64 -a 0 -x {1.1 0.1 1 ------- null}
h -t 0.164595769777637 -s 1 -d 0 -p ack -e 40 -c 0 -i 64 -a 0 -x {1.1 0.1 -1 ------- null}
+ -t 0.164795769777638 -s 0 -d 1 -p exp -e 210 -c 3 -i 65 -a 3 -x {0.0 1.0 52 ------- null}
+ -t 0.165635769777638 -s 0 -d 1 -p exp -e 210 -c 3 -i 66 -a 3 -x {0.0 1.0 53 ------- null}
- -t 0.166235769777637 -s 0 -d 1 -p exp -e 210 -c 3 -i 36 -a 3 -x {0.0 1.0 24 ------- null}
h -t 0.166235769777637 -s 0 -d 1 -p exp -e 210 -c 3 -i 36 -a 3 -x {0.0 1.0 -1 ------- null}
+ -t 0.166475769777638 -s 0 -d 1 -p exp -e 210 -c 3 -i 67 -a 3 -x {0.0 1.0 54 ------- null}
- -t 0.167075769777637 -s 0 -d 1 -p exp -e 210 -c 3 -i 37 -a 3 -x {0.0 1.0 25 ------- null}
h -t 0.167075769777637 -s 0 -d 1 -p exp -e 210 -c 3 -i 37 -a 3 -x {0.0 1.0 -1 ------- null}
+ -t 0.167315769777638 -s 0 -d 1 -p exp -e 210 -c 3 -i 68 -a 3 -x {0.0 1.0 55 ------- null}
- -t 0.167915769777637 -s 0 -d 1 -p exp -e 210 -c 3 -i 38 -a 3 -x {0.0 1.0 26 ------- null}
h -t 0.167915769777637 -s 0 -d 1 -p exp -e 210 -c 3 -i 38 -a 3 -x {0.0 1.0 -1 ------- null}
+ -t 0.168155769777638 -s 0 -d 1 -p exp -e 210 -c 3 -i 69 -a 3 -x {0.0 1.0 56 ------- null}
r -t 0.168755769777637 -s 0 -d 1 -p tcp -e 1040 -c 0 -i 30 -a 0 -x {0.1 1.1 2 ------- null}
+ -t 0.168755769777637 -s 1 -d 0 -p ack -e 40 -c 0 -i 70 -a 0 -x {1.1 0.1 2 ------- null}
- -t 0.168755769777637 -s 1 -d 0 -p ack -e 40 -c 0 -i 70 -a 0 -x {1.1 0.1 2 ------- null}
h -t 0.168755769777637 -s 1 -d 0 -p ack -e 40 -c 0 -i 70 -a 0 -x {1.1 0.1 -1 ------- null}
- -t 0.168755769777637 -s 0 -d 1 -p exp -e 210 -c 3 -i 39 -a 3 -x {0.0 1.0 27 ------- null}
h -t 0.168755769777637 -s 0 -d 1 -p exp -e 210 -c 3 -i 39 -a 3 -x {0.0 1.0 -1 ------- null}
+ -t 0.168995769777638 -s 0 -d 1 -p exp -e 210 -c 3 -i 71 -a 3 -x {0.0 1.0 57 ------- null}
r -t 0.169595769777637 -s 0 -d 1 -p exp -e 210 -c 3 -i 31 -a 3 -x {0.0 1.0 23 ------- null}
- -t 0.169595769777637 -s 0 -d 1 -p exp -e 210 -c 3 -i 40 -a 3 -x {0.0 1.0 28 ------- null}
h -t 0.169595769777637 -s 0 -d 1 -p exp -e 210 -c 3 -i 40 -a 3 -x {0.0 1.0 -1 ------- null}
+ -t 0.169835769777638 -s 0 -d 1 -p exp -e 210 -c 3 -i 72 -a 3 -x {0.0 1.0 58 ------- null}
- -t 0.170435769777637 -s 0 -d 1 -p exp -e 210 -c 3 -i 41 -a 3 -x {0.0 1.0 29 ------- null}
h -t 0.170435769777637 -s 0 -d 1 -p exp -e 210 -c 3 -i 41 -a 3 -x {0.0 1.0 -1 ------- null}
+ -t 0.170675769777638 -s 0 -d 1 -p exp -e 210 -c 3 -i 73 -a 3 -x {0.0 1.0 59 ------- null}
- -t 0.171275769777637 -s 0 -d 1 -p exp -e 210 -c 3 -i 42 -a 3 -x {0.0 1.0 30 ------- null}
h -t 0.171275769777637 -s 0 -d 1 -p exp -e 210 -c 3 -i 42 -a 3 -x {0.0 1.0 -1 ------- null}
+ -t 0.171515769777638 -s 0 -d 1 -p exp -e 210 -c 3 -i 74 -a 3 -x {0.0 1.0 60 ------- null}
- -t 0.172115769777637 -s 0 -d 1 -p exp -e 210 -c 3 -i 43 -a 3 -x {0.0 1.0 31 ------- null}
h -t 0.172115769777637 -s 0 -d 1 -p exp -e 210 -c 3 -i 43 -a 3 -x {0.0 1.0 -1 ------- null}
+ -t 0.172355769777638 -s 0 -d 1 -p exp -e 210 -c 3 -i 75 -a 3 -x {0.0 1.0 61 ------- null}
- -t 0.172955769777637 -s 0 -d 1 -p exp -e 210 -c 3 -i 44 -a 3 -x {0.0 1.0 32 ------- null}
h -t 0.172955769777637 -s 0 -d 1 -p exp -e 210 -c 3 -i 44 -a 3 -x {0.0 1.0 -1 ------- null}
+ -t 0.173195769777638 -s 0 -d 1 -p exp -e 210 -c 3 -i 76 -a 3 -x {0.0 1.0 62 ------- null}
r -t 0.173755769777637 -s 0 -d 1 -p tcp -e 1040 -c 1 -i 32 -a 1 -x {0.2 1.2 1 ------- null}
+ -t 0.173755769777637 -s 1 -d 0 -p ack -e 40 -c 1 -i 77 -a 1 -x {1.2 0.2 1 ------- null}
- -t 0.173755769777637 -s 1 -d 0 -p ack -e 40 -c 1 -i 77 -a 1 -x {1.2 0.2 1 ------- null}
h -t 0.173755769777637 -s 1 -d 0 -p ack -e 40 -c 1 -i 77 -a 1 -x {1.2 0.2 -1 ------- null}
- -t 0.173795769777637 -s 0 -d 1 -p exp -e 210 -c 3 -i 45 -a 3 -x {0.0 1.0 33 ------- null}
h -t 0.173795769777637 -s 0 -d 1 -p exp -e 210 -c 3 -i 45 -a 3 -x {0.0 1.0 -1 ------- null}
+ -t 0.174035769777638 -s 0 -d 1 -p exp -e 210 -c 3 -i 78 -a 3 -x {0.0 1.0 63 ------- null}
- -t 0.174635769777637 -s 0 -d 1 -p exp -e 210 -c 3 -i 46 -a 3 -x {0.0 1.0 34 ------- null}
h -t 0.174635769777637 -s 0 -d 1 -p exp -e 210 -c 3 -i 46 -a 3 -x {0.0 1.0 -1 ------- null}
+ -t 0.174875769777638 -s 0 -d 1 -p exp -e 210 -c 3 -i 79 -a 3 -x {0.0 1.0 64 ------- null}
- -t 0.175475769777637 -s 0 -d 1 -p exp -e 210 -c 3 -i 47 -a 3 -x {0.0 1.0 35 ------- null}
h -t 0.175475769777637 -s 0 -d 1 -p exp -e 210 -c 3 -i 47 -a 3 -x {0.0 1.0 -1 ------- null}
+ -t 0.175715769777638 -s 0 -d 1 -p exp -e 210 -c 3 -i 80 -a 3 -x {0.0 1.0 65 ------- null}
- -t 0.176315769777637 -s 0 -d 1 -p exp -e 210 -c 3 -i 48 -a 3 -x {0.0 1.0 36 ------- null}
h -t 0.176315769777637 -s 0 -d 1 -p exp -e 210 -c 3 -i 48 -a 3 -x {0.0 1.0 -1 ------- null}
+ -t 0.176555769777638 -s 0 -d 1 -p exp -e 210 -c 3 -i 81 -a 3 -x {0.0 1.0 66 ------- null}
- -t 0.177155769777638 -s 0 -d 1 -p exp -e 210 -c 3 -i 49 -a 3 -x {0.0 1.0 37 ------- null}
h -t 0.177155769777638 -s 0 -d 1 -p exp -e 210 -c 3 -i 49 -a 3 -x {0.0 1.0 -1 ------- null}
+ -t 0.177395769777638 -s 0 -d 1 -p exp -e 210 -c 3 -i 82 -a 3 -x {0.0 1.0 67 ------- null}
r -t 0.177915769777637 -s 0 -d 1 -p tcp -e 1040 -c 1 -i 33 -a 1 -x {0.2 1.2 2 ------- null}
+ -t 0.177915769777637 -s 1 -d 0 -p ack -e 40 -c 1 -i 83 -a 1 -x {1.2 0.2 2 ------- null}
- -t 0.177915769777637 -s 1 -d 0 -p ack -e 40 -c 1 -i 83 -a 1 -x {1.2 0.2 2 ------- null}
h -t 0.177915769777637 -s 1 -d 0 -p ack -e 40 -c 1 -i 83 -a 1 -x {1.2 0.2 -1 ------- null}
- -t 0.177995769777638 -s 0 -d 1 -p exp -e 210 -c 3 -i 50 -a 3 -x {0.0 1.0 38 ------- null}
h -t 0.177995769777638 -s 0 -d 1 -p exp -e 210 -c 3 -i 50 -a 3 -x {0.0 1.0 -1 ------- null}
+ -t 0.178235769777638 -s 0 -d 1 -p exp -e 210 -c 3 -i 84 -a 3 -x {0.0 1.0 68 ------- null}
- -t 0.178835769777638 -s 0 -d 1 -p exp -e 210 -c 3 -i 51 -a 3 -x {0.0 1.0 39 ------- null}
h -t 0.178835769777638 -s 0 -d 1 -p exp -e 210 -c 3 -i 51 -a 3 -x {0.0 1.0 -1 ------- null}
+ -t 0.179075769777638 -s 0 -d 1 -p exp -e 210 -c 3 -i 85 -a 3 -x {0.0 1.0 69 ------- null}
- -t 0.179675769777638 -s 0 -d 1 -p exp -e 210 -c 3 -i 52 -a 3 -x {0.0 1.0 40 ------- null}
h -t 0.179675769777638 -s 0 -d 1 -p exp -e 210 -c 3 -i 52 -a 3 -x {0.0 1.0 -1 ------- null}
+ -t 0.179915769777638 -s 0 -d 1 -p exp -e 210 -c 3 -i 86 -a 3 -x {0.0 1.0 70 ------- null}
- -t 0.180515769777638 -s 0 -d 1 -p exp -e 210 -c 3 -i 53 -a 3 -x {0.0 1.0 41 ------- null}
h -t 0.180515769777638 -s 0 -d 1 -p exp -e 210 -c 3 -i 53 -a 3 -x {0.0 1.0 -1 ------- null}
+ -t 0.180755769777638 -s 0 -d 1 -p exp -e 210 -c 3 -i 87 -a 3 -x {0.0 1.0 71 ------- null}
- -t 0.181355769777638 -s 0 -d 1 -p exp -e 210 -c 3 -i 54 -a 3 -x {0.0 1.0 42 ------- null}
h -t 0.181355769777638 -s 0 -d 1 -p exp -e 210 -c 3 -i 54 -a 3 -x {0.0 1.0 -1 ------- null}
+ -t 0.181595769777638 -s 0 -d 1 -p exp -e 210 -c 3 -i 88 -a 3 -x {0.0 1.0 72 ------- null}
r -t 0.182075769777637 -s 0 -d 1 -p tcp -e 1040 -c 2 -i 34 -a 2 -x {0.3 1.3 1 ------- null}
+ -t 0.182075769777637 -s 1 -d 0 -p ack -e 40 -c 2 -i 89 -a 2 -x {1.3 0.3 1 ------- null}
- -t 0.182075769777637 -s 1 -d 0 -p ack -e 40 -c 2 -i 89 -a 2 -x {1.3 0.3 1 ------- null}
h -t 0.182075769777637 -s 1 -d 0 -p ack -e 40 -c 2 -i 89 -a 2 -x {1.3 0.3 -1 ------- null}
- -t 0.182195769777638 -s 0 -d 1 -p exp -e 210 -c 3 -i 55 -a 3 -x {0.0 1.0 43 ------- null}
h -t 0.182195769777638 -s 0 -d 1 -p exp -e 210 -c 3 -i 55 -a 3 -x {0.0 1.0 -1 ------- null}
+ -t 0.182435769777638 -s 0 -d 1 -p exp -e 210 -c 3 -i 90 -a 3 -x {0.0 1.0 73 ------- null}
- -t 0.183035769777638 -s 0 -d 1 -p exp -e 210 -c 3 -i 56 -a 3 -x {0.0 1.0 44 ------- null}
h -t 0.183035769777638 -s 0 -d 1 -p exp -e 210 -c 3 -i 56 -a 3 -x {0.0 1.0 -1 ------- null}
+ -t 0.183275769777638 -s 0 -d 1 -p exp -e 210 -c 3 -i 91 -a 3 -x {0.0 1.0 74 ------- null}
- -t 0.183875769777638 -s 0 -d 1 -p exp -e 210 -c 3 -i 57 -a 3 -x {0.0 1.0 45 ------- null}
h -t 0.183875769777638 -s 0 -d 1 -p exp -e 210 -c 3 -i 57 -a 3 -x {0.0 1.0 -1 ------- null}
+ -t 0.184115769777638 -s 0 -d 1 -p exp -e 210 -c 3 -i 92 -a 3 -x {0.0 1.0 75 ------- null}
- -t 0.184715769777638 -s 0 -d 1 -p exp -e 210 -c 3 -i 58 -a 3 -x {0.0 1.0 46 ------- null}
h -t 0.184715769777638 -s 0 -d 1 -p exp -e 210 -c 3 -i 58 -a 3 -x {0.0 1.0 -1 ------- null}
r -t 0.184755769777637 -s 1 -d 0 -p ack -e 40 -c 0 -i 64 -a 0 -x {1.1 0.1 1 ------- null}
+ -t 0.184755769777637 -s 0 -d 1 -p tcp -e 1040 -c 0 -i 93 -a 0 -x {0.1 1.1 3 ------- null}
+ -t 0.184755769777637 -s 0 -d 1 -p tcp -e 1040 -c 0 -i 94 -a 0 -x {0.1 1.1 4 ------- null}
+ -t 0.184955769777638 -s 0 -d 1 -p exp -e 210 -c 3 -i 95 -a 3 -x {0.0 1.0 76 ------- null}
- -t 0.185555769777638 -s 0 -d 1 -p exp -e 210 -c 3 -i 59 -a 3 -x {0.0 1.0 47 ------- null}
h -t 0.185555769777638 -s 0 -d 1 -p exp -e 210 -c 3 -i 59 -a 3 -x {0.0 1.0 -1 ------- null}
+ -t 0.185795769777638 -s 0 -d 1 -p exp -e 210 -c 3 -i 96 -a 3 -x {0.0 1.0 77 ------- null}
r -t 0.186235769777637 -s 0 -d 1 -p tcp -e 1040 -c 2 -i 35 -a 2 -x {0.3 1.3 2 ------- null}
+ -t 0.186235769777637 -s 1 -d 0 -p ack -e 40 -c 2 -i 97 -a 2 -x {1.3 0.3 2 ------- null}
- -t 0.186235769777637 -s 1 -d 0 -p ack -e 40 -c 2 -i 97 -a 2 -x {1.3 0.3 2 ------- null}
h -t 0.186235769777637 -s 1 -d 0 -p ack -e 40 -c 2 -i 97 -a 2 -x {1.3 0.3 -1 ------- null}
- -t 0.186395769777638 -s 0 -d 1 -p exp -e 210 -c 3 -i 60 -a 3 -x {0.0 1.0 48 ------- null}
h -t 0.186395769777638 -s 0 -d 1 -p exp -e 210 -c 3 -i 60 -a 3 -x {0.0 1.0 -1 ------- null}
+ -t 0.186635769777638 -s 0 -d 1 -p exp -e 210 -c 3 -i 98 -a 3 -x {0.0 1.0 78 ------- null}
r -t 0.187075769777637 -s 0 -d 1 -p exp -e 210 -c 3 -i 36 -a 3 -x {0.0 1.0 24 ------- null}
- -t 0.187235769777638 -s 0 -d 1 -p exp -e 210 -c 3 -i 61 -a 3 -x {0.0 1.0 49 ------- null}
h -t 0.187235769777638 -s 0 -d 1 -p exp -e 210 -c 3 -i 61 -a 3 -x {0.0 1.0 -1 ------- null}
+ -t 0.187475769777638 -s 0 -d 1 -p exp -e 210 -c 3 -i 99 -a 3 -x {0.0 1.0 79 ------- null}
r -t 0.187915769777637 -s 0 -d 1 -p exp -e 210 -c 3 -i 37 -a 3 -x {0.0 1.0 25 ------- null}
- -t 0.188075769777638 -s 0 -d 1 -p exp -e 210 -c 3 -i 62 -a 3 -x {0.0 1.0 50 ------- null}
h -t 0.188075769777638 -s 0 -d 1 -p exp -e 210 -c 3 -i 62 -a 3 -x {0.0 1.0 -1 ------- null}
+ -t 0.188315769777638 -s 0 -d 1 -p exp -e 210 -c 3 -i 100 -a 3 -x {0.0 1.0 80 ------- null}
r -t 0.188755769777637 -s 0 -d 1 -p exp -e 210 -c 3 -i 38 -a 3 -x {0.0 1.0 26 ------- null}
r -t 0.188915769777637 -s 1 -d 0 -p ack -e 40 -c 0 -i 70 -a 0 -x {1.1 0.1 2 ------- null}
+ -t 0.188915769777637 -s 0 -d 1 -p tcp -e 1040 -c 0 -i 101 -a 0 -x {0.1 1.1 5 ------- null}
+ -t 0.188915769777637 -s 0 -d 1 -p tcp -e 1040 -c 0 -i 102 -a 0 -x {0.1 1.1 6 ------- null}
- -t 0.188915769777638 -s 0 -d 1 -p exp -e 210 -c 3 -i 63 -a 3 -x {0.0 1.0 51 ------- null}
h -t 0.188915769777638 -s 0 -d 1 -p exp -e 210 -c 3 -i 63 -a 3 -x {0.0 1.0 -1 ------- null}
+ -t 0.189155769777638 -s 0 -d 1 -p exp -e 210 -c 3 -i 103 -a 3 -x {0.0 1.0 81 ------- null}
r -t 0.189595769777637 -s 0 -d 1 -p exp -e 210 -c 3 -i 39 -a 3 -x {0.0 1.0 27 ------- null}
- -t 0.189755769777638 -s 0 -d 1 -p exp -e 210 -c 3 -i 65 -a 3 -x {0.0 1.0 52 ------- null}
h -t 0.189755769777638 -s 0 -d 1 -p exp -e 210 -c 3 -i 65 -a 3 -x {0.0 1.0 -1 ------- null}
+ -t 0.189995769777638 -s 0 -d 1 -p exp -e 210 -c 3 -i 104 -a 3 -x {0.0 1.0 82 ------- null}
r -t 0.190435769777637 -s 0 -d 1 -p exp -e 210 -c 3 -i 40 -a 3 -x {0.0 1.0 28 ------- null}
- -t 0.190595769777638 -s 0 -d 1 -p exp -e 210 -c 3 -i 66 -a 3 -x {0.0 1.0 53 ------- null}
h -t 0.190595769777638 -s 0 -d 1 -p exp -e 210 -c 3 -i 66 -a 3 -x {0.0 1.0 -1 ------- null}
+ -t 0.190835769777638 -s 0 -d 1 -p exp -e 210 -c 3 -i 105 -a 3 -x {0.0 1.0 83 ------- null}
r -t 0.191275769777637 -s 0 -d 1 -p exp -e 210 -c 3 -i 41 -a 3 -x {0.0 1.0 29 ------- null}
- -t 0.191435769777638 -s 0 -d 1 -p exp -e 210 -c 3 -i 67 -a 3 -x {0.0 1.0 54 ------- null}
h -t 0.191435769777638 -s 0 -d 1 -p exp -e 210 -c 3 -i 67 -a 3 -x {0.0 1.0 -1 ------- null}
+ -t 0.191675769777638 -s 0 -d 1 -p exp -e 210 -c 3 -i 106 -a 3 -x {0.0 1.0 84 ------- null}
r -t 0.192115769777637 -s 0 -d 1 -p exp -e 210 -c 3 -i 42 -a 3 -x {0.0 1.0 30 ------- null}
- -t 0.192275769777638 -s 0 -d 1 -p exp -e 210 -c 3 -i 68 -a 3 -x {0.0 1.0 55 ------- null}
h -t 0.192275769777638 -s 0 -d 1 -p exp -e 210 -c 3 -i 68 -a 3 -x {0.0 1.0 -1 ------- null}
+ -t 0.192515769777638 -s 0 -d 1 -p exp -e 210 -c 3 -i 107 -a 3 -x {0.0 1.0 85 ------- null}
r -t 0.192955769777637 -s 0 -d 1 -p exp -e 210 -c 3 -i 43 -a 3 -x {0.0 1.0 31 ------- null}
- -t 0.193115769777638 -s 0 -d 1 -p exp -e 210 -c 3 -i 69 -a 3 -x {0.0 1.0 56 ------- null}
h -t 0.193115769777638 -s 0 -d 1 -p exp -e 210 -c 3 -i 69 -a 3 -x {0.0 1.0 -1 ------- null}
+ -t 0.193355769777638 -s 0 -d 1 -p exp -e 210 -c 3 -i 108 -a 3 -x {0.0 1.0 86 ------- null}
r -t 0.193795769777637 -s 0 -d 1 -p exp -e 210 -c 3 -i 44 -a 3 -x {0.0 1.0 32 ------- null}
r -t 0.193915769777637 -s 1 -d 0 -p ack -e 40 -c 1 -i 77 -a 1 -x {1.2 0.2 1 ------- null}
+ -t 0.193915769777637 -s 0 -d 1 -p tcp -e 1040 -c 1 -i 109 -a 1 -x {0.2 1.2 3 ------- null}
+ -t 0.193915769777637 -s 0 -d 1 -p tcp -e 1040 -c 1 -i 110 -a 1 -x {0.2 1.2 4 ------- null}
- -t 0.193955769777638 -s 0 -d 1 -p exp -e 210 -c 3 -i 71 -a 3 -x {0.0 1.0 57 ------- null}
h -t 0.193955769777638 -s 0 -d 1 -p exp -e 210 -c 3 -i 71 -a 3 -x {0.0 1.0 -1 ------- null}
+ -t 0.194195769777638 -s 0 -d 1 -p exp -e 210 -c 3 -i 111 -a 3 -x {0.0 1.0 87 ------- null}
r -t 0.194635769777637 -s 0 -d 1 -p exp -e 210 -c 3 -i 45 -a 3 -x {0.0 1.0 33 ------- null}
- -t 0.194795769777638 -s 0 -d 1 -p exp -e 210 -c 3 -i 72 -a 3 -x {0.0 1.0 58 ------- null}
h -t 0.194795769777638 -s 0 -d 1 -p exp -e 210 -c 3 -i 72 -a 3 -x {0.0 1.0 -1 ------- null}
+ -t 0.195035769777638 -s 0 -d 1 -p exp -e 210 -c 3 -i 112 -a 3 -x {0.0 1.0 88 ------- null}
r -t 0.195475769777637 -s 0 -d 1 -p exp -e 210 -c 3 -i 46 -a 3 -x {0.0 1.0 34 ------- null}
- -t 0.195635769777638 -s 0 -d 1 -p exp -e 210 -c 3 -i 73 -a 3 -x {0.0 1.0 59 ------- null}
h -t 0.195635769777638 -s 0 -d 1 -p exp -e 210 -c 3 -i 73 -a 3 -x {0.0 1.0 -1 ------- null}
+ -t 0.195875769777638 -s 0 -d 1 -p exp -e 210 -c 3 -i 113 -a 3 -x {0.0 1.0 89 ------- null}
r -t 0.196315769777637 -s 0 -d 1 -p exp -e 210 -c 3 -i 47 -a 3 -x {0.0 1.0 35 ------- null}
- -t 0.196475769777638 -s 0 -d 1 -p exp -e 210 -c 3 -i 74 -a 3 -x {0.0 1.0 60 ------- null}
h -t 0.196475769777638 -s 0 -d 1 -p exp -e 210 -c 3 -i 74 -a 3 -x {0.0 1.0 -1 ------- null}
+ -t 0.196715769777638 -s 0 -d 1 -p exp -e 210 -c 3 -i 114 -a 3 -x {0.0 1.0 90 ------- null}
r -t 0.197155769777637 -s 0 -d 1 -p exp -e 210 -c 3 -i 48 -a 3 -x {0.0 1.0 36 ------- null}
- -t 0.197315769777638 -s 0 -d 1 -p exp -e 210 -c 3 -i 75 -a 3 -x {0.0 1.0 61 ------- null}
h -t 0.197315769777638 -s 0 -d 1 -p exp -e 210 -c 3 -i 75 -a 3 -x {0.0 1.0 -1 ------- null}