+ 0.1 0 1 tcp 40 ------- 0 0.1 1.1 0 0
- 0.1 0 1 tcp 40 ------- 0 0.1 1.1 0 0
+ 0.1 0 1 tcp 40 ------- 1 0.2 1.2 0 1
+ 0.1 0 1 tcp 40 ------- 2 0.3 1.3 0 2
- 0.10016 0 1 tcp 40 ------- 1 0.2 1.2 0 1
- 0.10032 0 1 tcp 40 ------- 2 0.3 1.3 0 2
r 0.12016 0 1 tcp 40 ------- 0 0.1 1.1 0 0
+ 0.12016 1 0 ack 40 ------- 0 1.1 0.1 0 3
- 0.12016 1 0 ack 40 ------- 0 1.1 0.1 0 3
r 0.12032 0 1 tcp 40 ------- 1 0.2 1.2 0 1
+ 0.12032 1 0 ack 40 ------- 1 1.2 0.2 0 4
- 0.12032 1 0 ack 40 ------- 1 1.2 0.2 0 4
r 0.12048 0 1 tcp 40 ------- 2 0.3 1.3 0 2
+ 0.12048 1 0 ack 40 ------- 2 1.3 0.3 0 5
- 0.12048 1 0 ack 40 ------- 2 1.3 0.3 0 5
+ 0.121116 0 1 exp 210 ------- 3 0.0 1.0 0 6
- 0.121116 0 1 exp 210 ------- 3 0.0 1.0 0 6
+ 0.121956 0 1 exp 210 ------- 3 0.0 1.0 1 7
- 0.121956 0 1 exp 210 ------- 3 0.0 1.0 1 7
+ 0.122796 0 1 exp 210 ------- 3 0.0 1.0 2 8
- 0.122796 0 1 exp 210 ------- 3 0.0 1.0 2 8
+ 0.123636 0 1 exp 210 ------- 3 0.0 1.0 3 9
- 0.123636 0 1 exp 210 ------- 3 0.0 1.0 3 9
+ 0.124476 0 1 exp 210 ------- 3 0.0 1.0 4 10
- 0.124476 0 1 exp 210 ------- 3 0.0 1.0 4 10
+ 0.125316 0 1 exp 210 ------- 3 0.0 1.0 5 11
- 0.125316 0 1 exp 210 ------- 3 0.0 1.0 5 11
+ 0.126156 0 1 exp 210 ------- 3 0.0 1.0 6 12
- 0.126156 0 1 exp 210 ------- 3 0.0 1.0 6 12
+ 0.126996 0 1 exp 210 ------- 3 0.0 1.0 7 13
- 0.126996 0 1 exp 210 ------- 3 0.0 1.0 7 13
+ 0.127836 0 1 exp 210 ------- 3 0.0 1.0 8 14
- 0.127836 0 1 exp 210 ------- 3 0.0 1.0 8 14
+ 0.128676 0 1 exp 210 ------- 3 0.0 1.0 9 15
- 0.128676 0 1 exp 210 ------- 3 0.0 1.0 9 15
+ 0.129516 0 1 exp 210 ------- 3 0.0 1.0 10 16
- 0.129516 0 1 exp 210 ------- 3 0.0 1.0 10 16
+ 0.130356 0 1 exp 210 ------- 3 0.0 1.0 11 17
- 0.130356 0 1 exp 210 ------- 3 0.0 1.0 11 17
+ 0.131196 0 1 exp 210 ------- 3 0.0 1.0 12 18
- 0.131196 0 1 exp 210 ------- 3 0.0 1.0 12 18
+ 0.132036 0 1 exp 210 ------- 3 0.0 1.0 13 19
- 0.132036 0 1 exp 210 ------- 3 0.0 1.0 13 19
+ 0.132876 0 1 exp 210 ------- 3 0.0 1.0 14 20
- 0.132876 0 1 exp 210 ------- 3 0.0 1.0 14 20
+ 0.133716 0 1 exp 210 ------- 3 0.0 1.0 15 21
- 0.133716 0 1 exp 210 ------- 3 0.0 1.0 15 21
+ 0.134556 0 1 exp 210 ------- 3 0.0 1.0 16 22
- 0.134556 0 1 exp 210 ------- 3 0.0 1.0 16 22
+ 0.135396 0 1 exp 210 ------- 3 0.0 1.0 17 23
- 0.135396 0 1 exp 210 ------- 3 0.0 1.0 17 23
+ 0.136236 0 1 exp 210 ------- 3 0.0 1.0 18 24
- 0.136236 0 1 exp 210 ------- 3 0.0 1.0 18 24
+ 0.137076 0 1 exp 210 ------- 3 0.0 1.0 19 25
- 0.137076 0 1 exp 210 ------- 3 0.0 1.0 19 25
+ 0.137916 0 1 exp 210 ------- 3 0.0 1.0 20 26
- 0.137916 0 1 exp 210 ------- 3 0.0 1.0 20 26
+ 0.138756 0 1 exp 210 ------- 3 0.0 1.0 21 27
- 0.138756 0 1 exp 210 ------- 3 0.0 1.0 21 27
+ 0.139596 0 1 exp 210 ------- 3 0.0 1.0 22 28
- 0.139596 0 1 exp 210 ------- 3 0.0 1.0 22 28
r 0.14032 1 0 ack 40 ------- 0 1.1 0.1 0 3
+ 0.14032 0 1 tcp 1040 ------- 0 0.1 1.1 1 29
+ 0.14032 0 1 tcp 1040 ------- 0 0.1 1.1 2 30
- 0.140436 0 1 tcp 1040 ------- 0 0.1 1.1 1 29
+ 0.140436 0 1 exp 210 ------- 3 0.0 1.0 23 31
r 0.14048 1 0 ack 40 ------- 1 1.2 0.2 0 4
+ 0.14048 0 1 tcp 1040 ------- 1 0.2 1.2 1 32
+ 0.14048 0 1 tcp 1040 ------- 1 0.2 1.2 2 33
r 0.14064 1 0 ack 40 ------- 2 1.3 0.3 0 5
+ 0.14064 0 1 tcp 1040 ------- 2 0.3 1.3 1 34
+ 0.14064 0 1 tcp 1040 ------- 2 0.3 1.3 2 35
+ 0.141276 0 1 exp 210 ------- 3 0.0 1.0 24 36
r 0.141956 0 1 exp 210 ------- 3 0.0 1.0 0 6
+ 0.142116 0 1 exp 210 ------- 3 0.0 1.0 25 37
r 0.142796 0 1 exp 210 ------- 3 0.0 1.0 1 7
+ 0.142956 0 1 exp 210 ------- 3 0.0 1.0 26 38
r 0.143636 0 1 exp 210 ------- 3 0.0 1.0 2 8
+ 0.143796 0 1 exp 210 ------- 3 0.0 1.0 27 39
r 0.144476 0 1 exp 210 ------- 3 0.0 1.0 3 9
- 0.144596 0 1 tcp 1040 ------- 0 0.1 1.1 2 30
+ 0.144636 0 1 exp 210 ------- 3 0.0 1.0 28 40
r 0.145316 0 1 exp 210 ------- 3 0.0 1.0 4 10
+ 0.145476 0 1 exp 210 ------- 3 0.0 1.0 29 41
r 0.146156 0 1 exp 210 ------- 3 0.0 1.0 5 11
+ 0.146316 0 1 exp 210 ------- 3 0.0 1.0 30 42
r 0.146996 0 1 exp 210 ------- 3 0.0 1.0 6 12
+ 0.147156 0 1 exp 210 ------- 3 0.0 1.0 31 43
r 0.147836 0 1 exp 210 ------- 3 0.0 1.0 7 13
+ 0.147996 0 1 exp 210 ------- 3 0.0 1.0 32 44
r 0.148676 0 1 exp 210 ------- 3 0.0 1.0 8 14
- 0.148756 0 1 exp 210 ------- 3 0.0 1.0 23 31
+ 0.148836 0 1 exp 210 ------- 3 0.0 1.0 33 45
r 0.149516 0 1 exp 210 ------- 3 0.0 1.0 9 15
- 0.149596 0 1 tcp 1040 ------- 1 0.2 1.2 1 32
+ 0.149676 0 1 exp 210 ------- 3 0.0 1.0 34 46
r 0.150356 0 1 exp 210 ------- 3 0.0 1.0 10 16
+ 0.150516 0 1 exp 210 ------- 3 0.0 1.0 35 47
r 0.151196 0 1 exp 210 ------- 3 0.0 1.0 11 17
+ 0.151356 0 1 exp 210 ------- 3 0.0 1.0 36 48
r 0.152036 0 1 exp 210 ------- 3 0.0 1.0 12 18
+ 0.152196 0 1 exp 210 ------- 3 0.0 1.0 37 49
r 0.152876 0 1 exp 210 ------- 3 0.0 1.0 13 19
+ 0.153036 0 1 exp 210 ------- 3 0.0 1.0 38 50
r 0.153716 0 1 exp 210 ------- 3 0.0 1.0 14 20
- 0.153756 0 1 tcp 1040 ------- 1 0.2 1.2 2 33
+ 0.153876 0 1 exp 210 ------- 3 0.0 1.0 39 51
r 0.154556 0 1 exp 210 ------- 3 0.0 1.0 15 21
+ 0.154716 0 1 exp 210 ------- 3 0.0 1.0 40 52
r 0.155396 0 1 exp 210 ------- 3 0.0 1.0 16 22
+ 0.155556 0 1 exp 210 ------- 3 0.0 1.0 41 53
r 0.156236 0 1 exp 210 ------- 3 0.0 1.0 17 23
+ 0.156396 0 1 exp 210 ------- 3 0.0 1.0 42 54
r 0.157076 0 1 exp 210 ------- 3 0.0 1.0 18 24
+ 0.157236 0 1 exp 210 ------- 3 0.0 1.0 43 55
r 0.157916 0 1 exp 210 ------- 3 0.0 1.0 19 25
- 0.157916 0 1 tcp 1040 ------- 2 0.3 1.3 1 34
+ 0.158076 0 1 exp 210 ------- 3 0.0 1.0 44 56
r 0.158756 0 1 exp 210 ------- 3 0.0 1.0 20 26
+ 0.158916 0 1 exp 210 ------- 3 0.0 1.0 45 57
r 0.159596 0 1 exp 210 ------- 3 0.0 1.0 21 27
+ 0.159756 0 1 exp 210 ------- 3 0.0 1.0 46 58
r 0.160436 0 1 exp 210 ------- 3 0.0 1.0 22 28
+ 0.160596 0 1 exp 210 ------- 3 0.0 1.0 47 59
+ 0.161436 0 1 exp 210 ------- 3 0.0 1.0 48 60
- 0.162076 0 1 tcp 1040 ------- 2 0.3 1.3 2 35
+ 0.162276 0 1 exp 210 ------- 3 0.0 1.0 49 61
+ 0.163116 0 1 exp 210 ------- 3 0.0 1.0 50 62
+ 0.163956 0 1 exp 210 ------- 3 0.0 1.0 51 63
r 0.164596 0 1 tcp 1040 ------- 0 0.1 1.1 1 29
+ 0.164596 1 0 ack 40 ------- 0 1.1 0.1 1 64
- 0.164596 1 0 ack 40 ------- 0 1.1 0.1 1 64
+ 0.164796 0 1 exp 210 ------- 3 0.0 1.0 52 65
+ 0.165636 0 1 exp 210 ------- 3 0.0 1.0 53 66
- 0.166236 0 1 exp 210 ------- 3 0.0 1.0 24 36
+ 0.166476 0 1 exp 210 ------- 3 0.0 1.0 54 67
- 0.167076 0 1 exp 210 ------- 3 0.0 1.0 25 37
+ 0.167316 0 1 exp 210 ------- 3 0.0 1.0 55 68
- 0.167916 0 1 exp 210 ------- 3 0.0 1.0 26 38
+ 0.168156 0 1 exp 210 ------- 3 0.0 1.0 56 69
r 0.168756 0 1 tcp 1040 ------- 0 0.1 1.1 2 30
+ 0.168756 1 0 ack 40 ------- 0 1.1 0.1 2 70
- 0.168756 1 0 ack 40 ------- 0 1.1 0.1 2 70
- 0.168756 0 1 exp 210 ------- 3 0.0 1.0 27 39
+ 0.168996 0 1 exp 210 ------- 3 0.0 1.0 57 71
r 0.169596 0 1 exp 210 ------- 3 0.0 1.0 23 31
- 0.169596 0 1 exp 210 ------- 3 0.0 1.0 28 40
+ 0.169836 0 1 exp 210 ------- 3 0.0 1.0 58 72
- 0.170436 0 1 exp 210 ------- 3 0.0 1.0 29 41
+ 0.170676 0 1 exp 210 ------- 3 0.0 1.0 59 73
- 0.171276 0 1 exp 210 ------- 3 0.0 1.0 30 42
+ 0.171516 0 1 exp 210 ------- 3 0.0 1.0 60 74
- 0.172116 0 1 exp 210 ------- 3 0.0 1.0 31 43
+ 0.172356 0 1 exp 210 ------- 3 0.0 1.0 61 75
- 0.172956 0 1 exp 210 ------- 3 0.0 1.0 32 44
+ 0.173196 0 1 exp 210 ------- 3 0.0 1.0 62 76
r 0.173756 0 1 tcp 1040 ------- 1 0.2 1.2 1 32
+ 0.173756 1 0 ack 40 ------- 1 1.2 0.2 1 77
- 0.173756 1 0 ack 40 ------- 1 1.2 0.2 1 77
- 0.173796 0 1 exp 210 ------- 3 0.0 1.0 33 45
+ 0.174036 0 1 exp 210 ------- 3 0.0 1.0 63 78
- 0.174636 0 1 exp 210 ------- 3 0.0 1.0 34 46
+ 0.174876 0 1 exp 210 ------- 3 0.0 1.0 64 79
- 0.175476 0 1 exp 210 ------- 3 0.0 1.0 35 47
+ 0.175716 0 1 exp 210 ------- 3 0.0 1.0 65 80
- 0.176316 0 1 exp 210 ------- 3 0.0 1.0 36 48
+ 0.176556 0 1 exp 210 ------- 3 0.0 1.0 66 81
- 0.177156 0 1 exp 210 ------- 3 0.0 1.0 37 49
+ 0.177396 0 1 exp 210 ------- 3 0.0 1.0 67 82
r 0.177916 0 1 tcp 1040 ------- 1 0.2 1.2 2 33
+ 0.177916 1 0 ack 40 ------- 1 1.2 0.2 2 83
- 0.177916 1 0 ack 40 ------- 1 1.2 0.2 2 83
- 0.177996 0 1 exp 210 ------- 3 0.0 1.0 38 50
+ 0.178236 0 1 exp 210 ------- 3 0.0 1.0 68 84
- 0.178836 0 1 exp 210 ------- 3 0.0 1.0 39 51
+ 0.179076 0 1 exp 210 ------- 3 0.0 1.0 69 85
- 0.179676 0 1 exp 210 ------- 3 0.0 1.0 40 52
+ 0.179916 0 1 exp 210 ------- 3 0.0 1.0 70 86
- 0.180516 0 1 exp 210 ------- 3 0.0 1.0 41 53
+ 0.180756 0 1 exp 210 ------- 3 0.0 1.0 71 87
- 0.181356 0 1 exp 210 ------- 3 0.0 1.0 42 54
+ 0.181596 0 1 exp 210 ------- 3 0.0 1.0 72 88
r 0.182076 0 1 tcp 1040 ------- 2 0.3 1.3 1 34
+ 0.182076 1 0 ack 40 ------- 2 1.3 0.3 1 89
- 0.182076 1 0 ack 40 ------- 2 1.3 0.3 1 89
- 0.182196 0 1 exp 210 ------- 3 0.0 1.0 43 55
+ 0.182436 0 1 exp 210 ------- 3 0.0 1.0 73 90
- 0.183036 0 1 exp 210 ------- 3 0.0 1.0 44 56
+ 0.183276 0 1 exp 210 ------- 3 0.0 1.0 74 91
- 0.183876 0 1 exp 210 ------- 3 0.0 1.0 45 57
+ 0.184116 0 1 exp 210 ------- 3 0.0 1.0 75 92
- 0.184716 0 1 exp 210 ------- 3 0.0 1.0 46 58
r 0.184756 1 0 ack 40 ------- 0 1.1 0.1 1 64
+ 0.184756 0 1 tcp 1040 ------- 0 0.1 1.1 3 93
+ 0.184756 0 1 tcp 1040 ------- 0 0.1 1.1 4 94
+ 0.184956 0 1 exp 210 ------- 3 0.0 1.0 76 95
- 0.185556 0 1 exp 210 ------- 3 0.0 1.0 47 59
+ 0.185796 0 1 exp 210 ------- 3 0.0 1.0 77 96
r 0.186236 0 1 tcp 1040 ------- 2 0.3 1.3 2 35
+ 0.186236 1 0 ack 40 ------- 2 1.3 0.3 2 97
- 0.186236 1 0 ack 40 ------- 2 1.3 0.3 2 97
- 0.186396 0 1 exp 210 ------- 3 0.0 1.0 48 60
+ 0.186636 0 1 exp 210 ------- 3 0.0 1.0 78 98
r 0.187076 0 1 exp 210 ------- 3 0.0 1.0 24 36
- 0.187236 0 1 exp 210 ------- 3 0.0 1.0 49 61
+ 0.187476 0 1 exp 210 ------- 3 0.0 1.0 79 99
r 0.187916 0 1 exp 210 ------- 3 0.0 1.0 25 37
- 0.188076 0 1 exp 210 ------- 3 0.0 1.0 50 62
+ 0.188316 0 1 exp 210 ------- 3 0.0 1.0 80 100
r 0.188756 0 1 exp 210 ------- 3 0.0 1.0 26 38
r 0.188916 1 0 ack 40 ------- 0 1.1 0.1 2 70
+ 0.188916 0 1 tcp 1040 ------- 0 0.1 1.1 5 101
+ 0.188916 0 1 tcp 1040 ------- 0 0.1 1.1 6 102
- 0.188916 0 1 exp 210 ------- 3 0.0 1.0 51 63
+ 0.189156 0 1 exp 210 ------- 3 0.0 1.0 81 103
r 0.189596 0 1 exp 210 ------- 3 0.0 1.0 27 39
- 0.189756 0 1 exp 210 ------- 3 0.0 1.0 52 65
+ 0.189996 0 1 exp 210 ------- 3 0.0 1.0 82 104
r 0.190436 0 1 exp 210 ------- 3 0.0 1.0 28 40
- 0.190596 0 1 exp 210 ------- 3 0.0 1.0 53 66
+ 0.190836 0 1 exp 210 ------- 3 0.0 1.0 83 105
r 0.191276 0 1 exp 210 ------- 3 0.0 1.0 29 41
- 0.191436 0 1 exp 210 ------- 3 0.0 1.0 54 67
+ 0.191676 0 1 exp 210 ------- 3 0.0 1.0 84 106
r 0.192116 0 1 exp 210 ------- 3 0.0 1.0 30 42
- 0.192276 0 1 exp 210 ------- 3 0.0 1.0 55 68
+ 0.192516 0 1 exp 210 ------- 3 0.0 1.0 85 107
r 0.192956 0 1 exp 210 ------- 3 0.0 1.0 31 43
- 0.193116 0 1 exp 210 ------- 3 0.0 1.0 56 69
+ 0.193356 0 1 exp 210 ------- 3 0.0 1.0 86 108
r 0.193796 0 1 exp 210 ------- 3 0.0 1.0 32 44
r 0.193916 1 0 ack 40 ------- 1 1.2 0.2 1 77
+ 0.193916 0 1 tcp 1040 ------- 1 0.2 1.2 3 109
+ 0.193916 0 1 tcp 1040 ------- 1 0.2 1.2 4 110
- 0.193956 0 1 exp 210 ------- 3 0.0 1.0 57 71
+ 0.194196 0 1 exp 210 ------- 3 0.0 1.0 87 111
r 0.194636 0 1 exp 210 ------- 3 0.0 1.0 33 45
- 0.194796 0 1 exp 210 ------- 3 0.0 1.0 58 72
+ 0.195036 0 1 exp 210 ------- 3 0.0 1.0 88 112
r 0.195476 0 1 exp 210 ------- 3 0.0 1.0 34 46
- 0.195636 0 1 exp 210 ------- 3 0.0 1.0 59 73
+ 0.195876 0 1 exp 210 ------- 3 0.0 1.0 89 113
r 0.196316 0 1 exp 210 ------- 3 0.0 1.0 35 47
- 0.196476 0 1 exp 210 ------- 3 0.0 1.0 60 74
+ 0.196716 0 1 exp 210 ------- 3 0.0 1.0 90 114
r 0.197156 0 1 exp 210 ------- 3 0.0 1.0 36 48
- 0.197316 0 1 exp 210 ------- 3 0.0 1.0 61 75
+ 0.197556 0 1 exp 210 ------- 3 0.0 1.0 91 115
r 0.197996 0 1 exp 210 ------- 3 0.0 1.0 37 49
r 0.198076 1 0 ack 40 ------- 1 1.2 0.2 2 83
+ 0.198076 0 1 tcp 1040 ------- 1 0.2 1.2 5 116
+ 0.198076 0 1 tcp 1040 ------- 1 0.2 1.2 6 117
- 0.198156 0 1 exp 210 ------- 3 0.0 1.0 62 76
+ 0.198396 0 1 exp 210 ------- 3 0.0 1.0 92 118
r 0.198836 0 1 exp 210 ------- 3 0.0 1.0 38 50
- 0.198996 0 1 exp 210 ------- 3 0.0 1.0 63 78
+ 0.199236 0 1 exp 210 ------- 3 0.0 1.0 93 119
r 0.199676 0 1 exp 210 ------- 3 0.0 1.0 39 51
- 0.199836 0 1 exp 210 ------- 3 0.0 1.0 64 79
+ 0.200076 0 1 exp 210 ------- 3 0.0 1.0 94 120
r 0.200516 0 1 exp 210 ------- 3 0.0 1.0 40 52
- 0.200676 0 1 exp 210 ------- 3 0.0 1.0 65 80
+ 0.200916 0 1 exp 210 ------- 3 0.0 1.0 95 121
r 0.201356 0 1 exp 210 ------- 3 0.0 1.0 41 53
- 0.201516 0 1 exp 210 ------- 3 0.0 1.0 66 81
+ 0.201756 0 1 exp 210 ------- 3 0.0 1.0 96 122
r 0.202196 0 1 exp 210 ------- 3 0.0 1.0 42 54
r 0.202236 1 0 ack 40 ------- 2 1.3 0.3 1 89
+ 0.202236 0 1 tcp 1040 ------- 2 0.3 1.3 3 123
+ 0.202236 0 1 tcp 1040 ------- 2 0.3 1.3 4 124
- 0.202356 0 1 exp 210 ------- 3 0.0 1.0 67 82
+ 0.202596 0 1 exp 210 ------- 3 0.0 1.0 97 125
r 0.203036 0 1 exp 210 ------- 3 0.0 1.0 43 55
- 0.203196 0 1 exp 210 ------- 3 0.0 1.0 68 84
+ 0.203436 0 1 exp 210 ------- 3 0.0 1.0 98 126
r 0.203876 0 1 exp 210 ------- 3 0.0 1.0 44 56
- 0.204036 0 1 exp 210 ------- 3 0.0 1.0 69 85
+ 0.204276 0 1 exp 210 ------- 3 0.0 1.0 99 127
r 0.204716 0 1 exp 210 ------- 3 0.0 1.0 45 57
- 0.204876 0 1 exp 210 ------- 3 0.0 1.0 70 86
+ 0.205116 0 1 exp 210 ------- 3 0.0 1.0 100 128
r 0.205556 0 1 exp 210 ------- 3 0.0 1.0 46 58
- 0.205716 0 1 exp 210 ------- 3 0.0 1.0 71 87
+ 0.205956 0 1 exp 210 ------- 3 0.0 1.0 101 129
r 0.206396 1 0 ack 40 ------- 2 1.3 0.3 2 97
+ 0.206396 0 1 tcp 1040 ------- 2 0.3 1.3 5 130
+ 0.206396 0 1 tcp 1040 ------- 2 0.3 1.3 6 131
r 0.206396 0 1 exp 210 ------- 3 0.0 1.0 47 59
- 0.206556 0 1 exp 210 ------- 3 0.0 1.0 72 88
+ 0.206796 0 1 exp 210 ------- 3 0.0 1.0 102 132
r 0.207236 0 1 exp 210 ------- 3 0.0 1.0 48 60
- 0.207396 0 1 exp 210 ------- 3 0.0 1.0 73 90
+ 0.207636 0 1 exp 210 ------- 3 0.0 1.0 103 133
r 0.208076 0 1 exp 210 ------- 3 0.0 1.0 49 61
- 0.208236 0 1 exp 210 ------- 3 0.0 1.0 74 91
+ 0.208476 0 1 exp 210 ------- 3 0.0 1.0 104 134
r 0.208916 0 1 exp 210 ------- 3 0.0 1.0 50 62
- 0.209076 0 1 exp 210 ------- 3 0.0 1.0 75 92
+ 0.209316 0 1 exp 210 ------- 3 0.0 1.0 105 135
r 0.209756 0 1 exp 210 ------- 3 0.0 1.0 51 63
- 0.209916 0 1 tcp 1040 ------- 0 0.1 1.1 3 93
+ 0.210156 0 1 exp 210 ------- 3 0.0 1.0 106 136
r 0.210596 0 1 exp 210 ------- 3 0.0 1.0 52 65
+ 0.210996 0 1 exp 210 ------- 3 0.0 1.0 107 137
r 0.211436 0 1 exp 210 ------- 3 0.0 1.0 53 66
+ 0.211836 0 1 exp 210 ------- 3 0.0 1.0 108 138
r 0.212276 0 1 exp 210 ------- 3 0.0 1.0 54 67
+ 0.212676 0 1 exp 210 ------- 3 0.0 1.0 109 139
r 0.213116 0 1 exp 210 ------- 3 0.0 1.0 55 68
+ 0.213516 0 1 exp 210 ------- 3 0.0 1.0 110 140
r 0.213956 0 1 exp 210 ------- 3 0.0 1.0 56 69
- 0.214076 0 1 tcp 1040 ------- 0 0.1 1.1 4 94
+ 0.214356 0 1 exp 210 ------- 3 0.0 1.0 111 141
r 0.214796 0 1 exp 210 ------- 3 0.0 1.0 57 71
+ 0.215196 0 1 exp 210 ------- 3 0.0 1.0 112 142
r 0.215636 0 1 exp 210 ------- 3 0.0 1.0 58 72
+ 0.216036 0 1 exp 210 ------- 3 0.0 1.0 113 143
r 0.216476 0 1 exp 210 ------- 3 0.0 1.0 59 73
+ 0.216876 0 1 exp 210 ------- 3 0.0 1.0 114 144
r 0.217316 0 1 exp 210 ------- 3 0.0 1.0 60 74
+ 0.217716 0 1 exp 210 ------- 3 0.0 1.0 115 145
r 0.218156 0 1 exp 210 ------- 3 0.0 1.0 61 75
- 0.218236 0 1 exp 210 ------- 3 0.0 1.0 76 95
+ 0.218556 0 1 exp 210 ------- 3 0.0 1.0 116 146
r 0.218996 0 1 exp 210 ------- 3 0.0 1.0 62 76
- 0.219076 0 1 exp 210 ------- 3 0.0 1.0 77 96
+ 0.219396 0 1 exp 210 ------- 3 0.0 1.0 117 147
r 0.219836 0 1 exp 210 ------- 3 0.0 1.0 63 78
- 0.219916 0 1 exp 210 ------- 3 0.0 1.0 78 98
+ 0.220236 0 1 exp 210 ------- 3 0.0 1.0 118 148
r 0.220676 0 1 exp 210 ------- 3 0.0 1.0 64 79
- 0.220756 0 1 exp 210 ------- 3 0.0 1.0 79 99
+ 0.221076 0 1 exp 210 ------- 3 0.0 1.0 119 149
r 0.221516 0 1 exp 210 ------- 3 0.0 1.0 65 80
- 0.221596 0 1 exp 210 ------- 3 0.0 1.0 80 100
+ 0.221916 0 1 exp 210 ------- 3 0.0 1.0 120 150
r 0.222356 0 1 exp 210 ------- 3 0.0 1.0 66 81
- 0.222436 0 1 tcp 1040 ------- 0 0.1 1.1 5 101
+ 0.222756 0 1 exp 210 ------- 3 0.0 1.0 121 151
r 0.223196 0 1 exp 210 ------- 3 0.0 1.0 67 82
+ 0.223596 0 1 exp 210 ------- 3 0.0 1.0 122 152
r 0.224036 0 1 exp 210 ------- 3 0.0 1.0 68 84
+ 0.224436 0 1 exp 210 ------- 3 0.0 1.0 123 153
r 0.224876 0 1 exp 210 ------- 3 0.0 1.0 69 85
+ 0.225276 0 1 exp 210 ------- 3 0.0 1.0 124 154
r 0.225716 0 1 exp 210 ------- 3 0.0 1.0 70 86
+ 0.226116 0 1 exp 210 ------- 3 0.0 1.0 125 155
r 0.226556 0 1 exp 210 ------- 3 0.0 1.0 71 87
- 0.226596 0 1 tcp 1040 ------- 0 0.1 1.1 6 102
+ 0.226956 0 1 exp 210 ------- 3 0.0 1.0 126 156
r 0.227396 0 1 exp 210 ------- 3 0.0 1.0 72 88
+ 0.227796 0 1 exp 210 ------- 3 0.0 1.0 127 157
r 0.228236 0 1 exp 210 ------- 3 0.0 1.0 73 90
+ 0.228636 0 1 exp 210 ------- 3 0.0 1.0 128 158
r 0.229076 0 1 exp 210 ------- 3 0.0 1.0 74 91
+ 0.229476 0 1 exp 210 ------- 3 0.0 1.0 129 159
r 0.229916 0 1 exp 210 ------- 3 0.0 1.0 75 92
+ 0.230316 0 1 exp 210 ------- 3 0.0 1.0 130 160
- 0.230756 0 1 exp 210 ------- 3 0.0 1.0 81 103
+ 0.231156 0 1 exp 210 ------- 3 0.0 1.0 131 161
- 0.231596 0 1 exp 210 ------- 3 0.0 1.0 82 104
+ 0.231996 0 1 exp 210 ------- 3 0.0 1.0 132 162
- 0.232436 0 1 exp 210 ------- 3 0.0 1.0 83 105
+ 0.232836 0 1 exp 210 ------- 3 0.0 1.0 133 163
- 0.233276 0 1 exp 210 ------- 3 0.0 1.0 84 106
+ 0.233676 0 1 exp 210 ------- 3 0.0 1.0 134 164
r 0.234076 0 1 tcp 1040 ------- 0 0.1 1.1 3 93
+ 0.234076 1 0 ack 40 ------- 0 1.1 0.1 3 165
- 0.234076 1 0 ack 40 ------- 0 1.1 0.1 3 165
- 0.234116 0 1 exp 210 ------- 3 0.0 1.0 85 107
+ 0.234516 0 1 exp 210 ------- 3 0.0 1.0 135 166
- 0.234956 0 1 exp 210 ------- 3 0.0 1.0 86 108
+ 0.235356 0 1 exp 210 ------- 3 0.0 1.0 136 167
- 0.235796 0 1 tcp 1040 ------- 1 0.2 1.2 3 109
+ 0.236196 0 1 exp 210 ------- 3 0.0 1.0 137 168
r 0.238236 0 1 tcp 1040 ------- 0 0.1 1.1 4 94
+ 0.238236 1 0 ack 40 ------- 0 1.1 0.1 4 169
- 0.238236 1 0 ack 40 ------- 0 1.1 0.1 4 169
r 0.239076 0 1 exp 210 ------- 3 0.0 1.0 76 95
r 0.239916 0 1 exp 210 ------- 3 0.0 1.0 77 96
- 0.239956 0 1 tcp 1040 ------- 1 0.2 1.2 4 110
r 0.240756 0 1 exp 210 ------- 3 0.0 1.0 78 98
r 0.241596 0 1 exp 210 ------- 3 0.0 1.0 79 99
r 0.242436 0 1 exp 210 ------- 3 0.0 1.0 80 100
- 0.244116 0 1 exp 210 ------- 3 0.0 1.0 87 111
- 0.244956 0 1 exp 210 ------- 3 0.0 1.0 88 112
- 0.245796 0 1 exp 210 ------- 3 0.0 1.0 89 113
r 0.246596 0 1 tcp 1040 ------- 0 0.1 1.1 5 101
+ 0.246596 1 0 ack 40 ------- 0 1.1 0.1 5 170
- 0.246596 1 0 ack 40 ------- 0 1.1 0.1 5 170
- 0.246636 0 1 exp 210 ------- 3 0.0 1.0 90 114
- 0.247476 0 1 exp 210 ------- 3 0.0 1.0 91 115
- 0.248316 0 1 tcp 1040 ------- 1 0.2 1.2 5 116
r 0.250756 0 1 tcp 1040 ------- 0 0.1 1.1 6 102
+ 0.250756 1 0 ack 40 ------- 0 1.1 0.1 6 171
- 0.250756 1 0 ack 40 ------- 0 1.1 0.1 6 171
r 0.251596 0 1 exp 210 ------- 3 0.0 1.0 81 103
r 0.252436 0 1 exp 210 ------- 3 0.0 1.0 82 104
- 0.252476 0 1 tcp 1040 ------- 1 0.2 1.2 6 117
r 0.253276 0 1 exp 210 ------- 3 0.0 1.0 83 105
r 0.254116 0 1 exp 210 ------- 3 0.0 1.0 84 106
r 0.254236 1 0 ack 40 ------- 0 1.1 0.1 3 165
+ 0.254236 0 1 tcp 1040 ------- 0 0.1 1.1 7 172
+ 0.254236 0 1 tcp 1040 ------- 0 0.1 1.1 8 173
r 0.254956 0 1 exp 210 ------- 3 0.0 1.0 85 107
r 0.255796 0 1 exp 210 ------- 3 0.0 1.0 86 108
- 0.256636 0 1 exp 210 ------- 3 0.0 1.0 92 118
- 0.257476 0 1 exp 210 ------- 3 0.0 1.0 93 119
- 0.258316 0 1 exp 210 ------- 3 0.0 1.0 94 120
r 0.258396 1 0 ack 40 ------- 0 1.1 0.1 4 169
+ 0.258396 0 1 tcp 1040 ------- 0 0.1 1.1 9 174
+ 0.258396 0 1 tcp 1040 ------- 0 0.1 1.1 10 175
- 0.259156 0 1 exp 210 ------- 3 0.0 1.0 95 121
r 0.259956 0 1 tcp 1040 ------- 1 0.2 1.2 3 109
+ 0.259956 1 0 ack 40 ------- 1 1.2 0.2 3 176
- 0.259956 1 0 ack 40 ------- 1 1.2 0.2 3 176
- 0.259996 0 1 exp 210 ------- 3 0.0 1.0 96 122
- 0.260836 0 1 tcp 1040 ------- 2 0.3 1.3 3 123
r 0.264116 0 1 tcp 1040 ------- 1 0.2 1.2 4 110
+ 0.264116 1 0 ack 40 ------- 1 1.2 0.2 4 177
- 0.264116 1 0 ack 40 ------- 1 1.2 0.2 4 177
r 0.264956 0 1 exp 210 ------- 3 0.0 1.0 87 111
- 0.264996 0 1 tcp 1040 ------- 2 0.3 1.3 4 124
r 0.265796 0 1 exp 210 ------- 3 0.0 1.0 88 112
r 0.266636 0 1 exp 210 ------- 3 0.0 1.0 89 113
r 0.266756 1 0 ack 40 ------- 0 1.1 0.1 5 170
+ 0.266756 0 1 tcp 1040 ------- 0 0.1 1.1 11 178
+ 0.266756 0 1 tcp 1040 ------- 0 0.1 1.1 12 179
r 0.267476 0 1 exp 210 ------- 3 0.0 1.0 90 114
r 0.268316 0 1 exp 210 ------- 3 0.0 1.0 91 115
- 0.269156 0 1 exp 210 ------- 3 0.0 1.0 97 125
- 0.269996 0 1 exp 210 ------- 3 0.0 1.0 98 126
- 0.270836 0 1 exp 210 ------- 3 0.0 1.0 99 127
r 0.270916 1 0 ack 40 ------- 0 1.1 0.1 6 171
+ 0.270916 0 1 tcp 1040 ------- 0 0.1 1.1 13 180
+ 0.270916 0 1 tcp 1040 ------- 0 0.1 1.1 14 181
- 0.271676 0 1 exp 210 ------- 3 0.0 1.0 100 128
r 0.272476 0 1 tcp 1040 ------- 1 0.2 1.2 5 116
+ 0.272476 1 0 ack 40 ------- 1 1.2 0.2 5 182
- 0.272476 1 0 ack 40 ------- 1 1.2 0.2 5 182
- 0.272516 0 1 exp 210 ------- 3 0.0 1.0 101 129
- 0.273356 0 1 tcp 1040 ------- 2 0.3 1.3 5 130
r 0.276636 0 1 tcp 1040 ------- 1 0.2 1.2 6 117
+ 0.276636 1 0 ack 40 ------- 1 1.2 0.2 6 183
- 0.276636 1 0 ack 40 ------- 1 1.2 0.2 6 183
r 0.277476 0 1 exp 210 ------- 3 0.0 1.0 92 118
- 0.277516 0 1 tcp 1040 ------- 2 0.3 1.3 6 131
r 0.278316 0 1 exp 210 ------- 3 0.0 1.0 93 119
r 0.279156 0 1 exp 210 ------- 3 0.0 1.0 94 120
r 0.279996 0 1 exp 210 ------- 3 0.0 1.0 95 121
r 0.280116 1 0 ack 40 ------- 1 1.2 0.2 3 176
+ 0.280116 0 1 tcp 1040 ------- 1 0.2 1.2 7 184
+ 0.280116 0 1 tcp 1040 ------- 1 0.2 1.2 8 185
r 0.280836 0 1 exp 210 ------- 3 0.0 1.0 96 122
- 0.281676 0 1 exp 210 ------- 3 0.0 1.0 102 132
+ 0.281842 0 1 exp 210 ------- 3 0.0 1.0 138 186
- 0.282516 0 1 exp 210 ------- 3 0.0 1.0 103 133
+ 0.282682 0 1 exp 210 ------- 3 0.0 1.0 139 187
- 0.283356 0 1 exp 210 ------- 3 0.0 1.0 104 134
+ 0.283522 0 1 exp 210 ------- 3 0.0 1.0 140 188
- 0.284196 0 1 exp 210 ------- 3 0.0 1.0 105 135
r 0.284276 1 0 ack 40 ------- 1 1.2 0.2 4 177
+ 0.284276 0 1 tcp 1040 ------- 1 0.2 1.2 9 189
+ 0.284276 0 1 tcp 1040 ------- 1 0.2 1.2 10 190
+ 0.284362 0 1 exp 210 ------- 3 0.0 1.0 141 191
r 0.284996 0 1 tcp 1040 ------- 2 0.3 1.3 3 123
+ 0.284996 1 0 ack 40 ------- 2 1.3 0.3 3 192
- 0.284996 1 0 ack 40 ------- 2 1.3 0.3 3 192
- 0.285036 0 1 exp 210 ------- 3 0.0 1.0 106 136
+ 0.285202 0 1 exp 210 ------- 3 0.0 1.0 142 193
- 0.285876 0 1 exp 210 ------- 3 0.0 1.0 107 137
+ 0.286042 0 1 exp 210 ------- 3 0.0 1.0 143 194
- 0.286716 0 1 exp 210 ------- 3 0.0 1.0 108 138
+ 0.286882 0 1 exp 210 ------- 3 0.0 1.0 144 195
- 0.287556 0 1 exp 210 ------- 3 0.0 1.0 109 139
+ 0.287722 0 1 exp 210 ------- 3 0.0 1.0 145 196
- 0.288396 0 1 exp 210 ------- 3 0.0 1.0 110 140
+ 0.288562 0 1 exp 210 ------- 3 0.0 1.0 146 197
r 0.289156 0 1 tcp 1040 ------- 2 0.3 1.3 4 124
+ 0.289156 1 0 ack 40 ------- 2 1.3 0.3 4 198
- 0.289156 1 0 ack 40 ------- 2 1.3 0.3 4 198
- 0.289236 0 1 exp 210 ------- 3 0.0 1.0 111 141
+ 0.289402 0 1 exp 210 ------- 3 0.0 1.0 147 199
r 0.289996 0 1 exp 210 ------- 3 0.0 1.0 97 125
- 0.290076 0 1 exp 210 ------- 3 0.0 1.0 112 142
+ 0.290242 0 1 exp 210 ------- 3 0.0 1.0 148 200
r 0.290836 0 1 exp 210 ------- 3 0.0 1.0 98 126
- 0.290916 0 1 exp 210 ------- 3 0.0 1.0 113 143
+ 0.291082 0 1 exp 210 ------- 3 0.0 1.0 149 201
r 0.291676 0 1 exp 210 ------- 3 0.0 1.0 99 127
- 0.291756 0 1 exp 210 ------- 3 0.0 1.0 114 144
+ 0.291922 0 1 exp 210 ------- 3 0.0 1.0 150 202
r 0.292516 0 1 exp 210 ------- 3 0.0 1.0 100 128
- 0.292596 0 1 exp 210 ------- 3 0.0 1.0 115 145
r 0.292636 1 0 ack 40 ------- 1 1.2 0.2 5 182
+ 0.292636 0 1 tcp 1040 ------- 1 0.2 1.2 11 203
+ 0.292636 0 1 tcp 1040 ------- 1 0.2 1.2 12 204
+ 0.292762 0 1 exp 210 ------- 3 0.0 1.0 151 205
r 0.293356 0 1 exp 210 ------- 3 0.0 1.0 101 129
- 0.293436 0 1 exp 210 ------- 3 0.0 1.0 116 146
+ 0.293602 0 1 exp 210 ------- 3 0.0 1.0 152 206
- 0.294276 0 1 exp 210 ------- 3 0.0 1.0 117 147
+ 0.294442 0 1 exp 210 ------- 3 0.0 1.0 153 207
- 0.295116 0 1 exp 210 ------- 3 0.0 1.0 118 148
+ 0.295282 0 1 exp 210 ------- 3 0.0 1.0 154 208
- 0.295956 0 1 exp 210 ------- 3 0.0 1.0 119 149
+ 0.296122 0 1 exp 210 ------- 3 0.0 1.0 155 209
r 0.296796 1 0 ack 40 ------- 1 1.2 0.2 6 183
+ 0.296796 0 1 tcp 1040 ------- 1 0.2 1.2 13 210
+ 0.296796 0 1 tcp 1040 ------- 1 0.2 1.2 14 211
- 0.296796 0 1 exp 210 ------- 3 0.0 1.0 120 150
+ 0.296962 0 1 exp 210 ------- 3 0.0 1.0 156 212
r 0.297516 0 1 tcp 1040 ------- 2 0.3 1.3 5 130
+ 0.297516 1 0 ack 40 ------- 2 1.3 0.3 5 213
- 0.297516 1 0 ack 40 ------- 2 1.3 0.3 5 213
- 0.297636 0 1 exp 210 ------- 3 0.0 1.0 121 151
+ 0.297802 0 1 exp 210 ------- 3 0.0 1.0 157 214
- 0.298476 0 1 exp 210 ------- 3 0.0 1.0 122 152
+ 0.298642 0 1 exp 210 ------- 3 0.0 1.0 158 215
- 0.299316 0 1 exp 210 ------- 3 0.0 1.0 123 153
+ 0.299482 0 1 exp 210 ------- 3 0.0 1.0 159 216
- 0.300156 0 1 exp 210 ------- 3 0.0 1.0 124 154
+ 0.300322 0 1 exp 210 ------- 3 0.0 1.0 160 217
- 0.300996 0 1 exp 210 ------- 3 0.0 1.0 125 155
+ 0.301162 0 1 exp 210 ------- 3 0.0 1.0 161 218
r 0.301676 0 1 tcp 1040 ------- 2 0.3 1.3 6 131
+ 0.301676 1 0 ack 40 ------- 2 1.3 0.3 6 219
- 0.301676 1 0 ack 40 ------- 2 1.3 0.3 6 219
- 0.301836 0 1 exp 210 ------- 3 0.0 1.0 126 156
+ 0.302002 0 1 exp 210 ------- 3 0.0 1.0 162 220
r 0.302516 0 1 exp 210 ------- 3 0.0 1.0 102 132
- 0.302676 0 1 exp 210 ------- 3 0.0 1.0 127 157
+ 0.302842 0 1 exp 210 ------- 3 0.0 1.0 163 221
r 0.303356 0 1 exp 210 ------- 3 0.0 1.0 103 133
- 0.303516 0 1 exp 210 ------- 3 0.0 1.0 128 158
+ 0.303682 0 1 exp 210 ------- 3 0.0 1.0 164 222
r 0.304196 0 1 exp 210 ------- 3 0.0 1.0 104 134
- 0.304356 0 1 exp 210 ------- 3 0.0 1.0 129 159
+ 0.304522 0 1 exp 210 ------- 3 0.0 1.0 165 223
r 0.305036 0 1 exp 210 ------- 3 0.0 1.0 105 135
r 0.305156 1 0 ack 40 ------- 2 1.3 0.3 3 192
+ 0.305156 0 1 tcp 1040 ------- 2 0.3 1.3 7 224
+ 0.305156 0 1 tcp 1040 ------- 2 0.3 1.3 8 225
- 0.305196 0 1 exp 210 ------- 3 0.0 1.0 130 160
+ 0.305362 0 1 exp 210 ------- 3 0.0 1.0 166 226
r 0.305876 0 1 exp 210 ------- 3 0.0 1.0 106 136
- 0.306036 0 1 exp 210 ------- 3 0.0 1.0 131 161
+ 0.306202 0 1 exp 210 ------- 3 0.0 1.0 167 227
r 0.306716 0 1 exp 210 ------- 3 0.0 1.0 107 137
- 0.306876 0 1 exp 210 ------- 3 0.0 1.0 132 162
+ 0.307042 0 1 exp 210 ------- 3 0.0 1.0 168 228
r 0.307556 0 1 exp 210 ------- 3 0.0 1.0 108 138
- 0.307716 0 1 exp 210 ------- 3 0.0 1.0 133 163
+ 0.307882 0 1 exp 210 ------- 3 0.0 1.0 169 229
r 0.308396 0 1 exp 210 ------- 3 0.0 1.0 109 139
- 0.308556 0 1 exp 210 ------- 3 0.0 1.0 134 164
+ 0.308722 0 1 exp 210 ------- 3 0.0 1.0 170 230
r 0.309236 0 1 exp 210 ------- 3 0.0 1.0 110 140
r 0.309316 1 0 ack 40 ------- 2 1.3 0.3 4 198
+ 0.309316 0 1 tcp 1040 ------- 2 0.3 1.3 9 231
+ 0.309316 0 1 tcp 1040 ------- 2 0.3 1.3 10 232
- 0.309396 0 1 exp 210 ------- 3 0.0 1.0 135 166
+ 0.309562 0 1 exp 210 ------- 3 0.0 1.0 171 233
r 0.310076 0 1 exp 210 ------- 3 0.0 1.0 111 141
- 0.310236 0 1 exp 210 ------- 3 0.0 1.0 136 167
+ 0.310402 0 1 exp 210 ------- 3 0.0 1.0 172 234
r 0.310916 0 1 exp 210 ------- 3 0.0 1.0 112 142
- 0.311076 0 1 exp 210 ------- 3 0.0 1.0 137 168
+ 0.311242 0 1 exp 210 ------- 3 0.0 1.0 173 235
r 0.311756 0 1 exp 210 ------- 3 0.0 1.0 113 143
- 0.311916 0 1 tcp 1040 ------- 0 0.1 1.1 7 172
+ 0.312082 0 1 exp 210 ------- 3 0.0 1.0 174 236
r 0.312596 0 1 exp 210 ------- 3 0.0 1.0 114 144
+ 0.312922 0 1 exp 210 ------- 3 0.0 1.0 175 237
r 0.313436 0 1 exp 210 ------- 3 0.0 1.0 115 145
+ 0.313762 0 1 exp 210 ------- 3 0.0 1.0 176 238
r 0.314276 0 1 exp 210 ------- 3 0.0 1.0 116 146
+ 0.314602 0 1 exp 210 ------- 3 0.0 1.0 177 239
r 0.315116 0 1 exp 210 ------- 3 0.0 1.0 117 147
+ 0.315442 0 1 exp 210 ------- 3 0.0 1.0 178 240
r 0.315956 0 1 exp 210 ------- 3 0.0 1.0 118 148
- 0.316076 0 1 tcp 1040 ------- 0 0.1 1.1 8 173
+ 0.316282 0 1 exp 210 ------- 3 0.0 1.0 179 241
r 0.316796 0 1 exp 210 ------- 3 0.0 1.0 119 149
+ 0.317122 0 1 exp 210 ------- 3 0.0 1.0 180 242
r 0.317636 0 1 exp 210 ------- 3 0.0 1.0 120 150
r 0.317676 1 0 ack 40 ------- 2 1.3 0.3 5 213
+ 0.317676 0 1 tcp 1040 ------- 2 0.3 1.3 11 243
+ 0.317676 0 1 tcp 1040 ------- 2 0.3 1.3 12 244
+ 0.317962 0 1 exp 210 ------- 3 0.0 1.0 181 245
r 0.318476 0 1 exp 210 ------- 3 0.0 1.0 121 151
+ 0.318802 0 1 exp 210 ------- 3 0.0 1.0 182 246
r 0.319316 0 1 exp 210 ------- 3 0.0 1.0 122 152
+ 0.319642 0 1 exp 210 ------- 3 0.0 1.0 183 247
r 0.320156 0 1 exp 210 ------- 3 0.0 1.0 123 153
- 0.320236 0 1 tcp 1040 ------- 0 0.1 1.1 9 174
+ 0.320482 0 1 exp 210 ------- 3 0.0 1.0 184 248
r 0.320996 0 1 exp 210 ------- 3 0.0 1.0 124 154
+ 0.321322 0 1 exp 210 ------- 3 0.0 1.0 185 249
r 0.321836 1 0 ack 40 ------- 2 1.3 0.3 6 219
+ 0.321836 0 1 tcp 1040 ------- 2 0.3 1.3 13 250
+ 0.321836 0 1 tcp 1040 ------- 2 0.3 1.3 14 251
r 0.321836 0 1 exp 210 ------- 3 0.0 1.0 125 155
+ 0.322162 0 1 exp 210 ------- 3 0.0 1.0 186 252
r 0.322676 0 1 exp 210 ------- 3 0.0 1.0 126 156
+ 0.323002 0 1 exp 210 ------- 3 0.0 1.0 187 253
r 0.323516 0 1 exp 210 ------- 3 0.0 1.0 127 157
+ 0.323842 0 1 exp 210 ------- 3 0.0 1.0 188 254
r 0.324356 0 1 exp 210 ------- 3 0.0 1.0 128 158
- 0.324396 0 1 tcp 1040 ------- 0 0.1 1.1 10 175
+ 0.324682 0 1 exp 210 ------- 3 0.0 1.0 189 255
r 0.325196 0 1 exp 210 ------- 3 0.0 1.0 129 159
+ 0.325522 0 1 exp 210 ------- 3 0.0 1.0 190 256
r 0.326036 0 1 exp 210 ------- 3 0.0 1.0 130 160
+ 0.326362 0 1 exp 210 ------- 3 0.0 1.0 191 257
r 0.326876 0 1 exp 210 ------- 3 0.0 1.0 131 161
+ 0.327202 0 1 exp 210 ------- 3 0.0 1.0 192 258
r 0.327716 0 1 exp 210 ------- 3 0.0 1.0 132 162
+ 0.328042 0 1 exp 210 ------- 3 0.0 1.0 193 259
r 0.328556 0 1 exp 210 ------- 3 0.0 1.0 133 163
- 0.328556 0 1 tcp 1040 ------- 0 0.1 1.1 11 178
+ 0.328882 0 1 exp 210 ------- 3 0.0 1.0 194 260
r 0.329396 0 1 exp 210 ------- 3 0.0 1.0 134 164
+ 0.329722 0 1 exp 210 ------- 3 0.0 1.0 195 261
r 0.330236 0 1 exp 210 ------- 3 0.0 1.0 135 166
+ 0.330562 0 1 exp 210 ------- 3 0.0 1.0 196 262
r 0.331076 0 1 exp 210 ------- 3 0.0 1.0 136 167
+ 0.331402 0 1 exp 210 ------- 3 0.0 1.0 197 263
r 0.331916 0 1 exp 210 ------- 3 0.0 1.0 137 168
+ 0.332242 0 1 exp 210 ------- 3 0.0 1.0 198 264
- 0.332716 0 1 tcp 1040 ------- 0 0.1 1.1 12 179
+ 0.333082 0 1 exp 210 ------- 3 0.0 1.0 199 265